 DBCSR| CPU Multiplication driver                                           BLAS (U)
 DBCSR| Multrec recursion limit                                              512 (U)
 DBCSR| Multiplication stack size                                           1000 (D)
 DBCSR| Maximum elements for images                                    UNLIMITED (U)
 DBCSR| Multiplicative factor virtual images                                   1 (U)
 DBCSR| Use multiplication densification                                       T (D)
 DBCSR| Multiplication size stacks                                             3 (U)
 DBCSR| Use memory pool for CPU allocation                                     F (U)
 DBCSR| Number of 3D layers                                               SINGLE (U)
 DBCSR| Use MPI memory allocation                                              F (U)
 DBCSR| Use RMA algorithm                                                      F (U)
 DBCSR| Use Communication thread                                               T (U)
 DBCSR| Communication thread load                                             83 (D)
 DBCSR| MPI: My process id                                                     0
 DBCSR| MPI: Number of processes                                              16
 DBCSR| OMP: Current number of threads                                         2
 DBCSR| OMP: Max number of threads                                             2
 DBCSR| Split modifier for TAS multiplication algorithm                  1.0E+00 (U)


  **** **** ******  **  PROGRAM STARTED AT               2026-06-19 19:49:07.218
 ***** ** ***  *** **   PROGRAM STARTED ON         ip-172-31-89-158.ec2.internal
 **    ****   ******    PROGRAM STARTED BY                             <unknown>
 ***** **    ** ** **   PROGRAM PROCESS ID                                 10409
  **** **  *******  **  PROGRAM STARTED IN /opt/cp2k_sanity/cp2k_adsorption_hete
                                           rogeneity

 CP2K| version string:                                       CP2K version 2026.1
 CP2K| source code revision number:                                      aceff1c
 CP2K| cp2kflags: omp libint fftw3 libxc parallel scalapack mpi_f08 cosma xsmm p
 CP2K|            lumed2 spglib sirius libtorch hdf5 trexio
 CP2K| is freely available from                            https://www.cp2k.org/
 CP2K| Program compiled at                                   2026-06-16 16:35:48
 CP2K| Program compiled on                                                      
 CP2K| Program compiled for                                               x86_64
 CP2K| Data directory path                  /opt/cp2k_sanity/env/share/cp2k/data
 CP2K| Input file name        cp2k_inputs/sanity/sp/carbonyl_edge_periodic_ribbo

 GLOBAL| Force Environment number                                              1
 GLOBAL| Basis set file name            /opt/cp2k_sanity/env/share/cp2k/data/BAS
 GLOBAL| Potential file name            /opt/cp2k_sanity/env/share/cp2k/data/GTH
 GLOBAL| MM Potential file name                                     MM_POTENTIAL
 GLOBAL| Coordinate file name                                      __STD_INPUT__
 GLOBAL| Method name                                                        CP2K
 GLOBAL| Project name                   carbonyl_edge_periodic_ribbon_sanity_opt
 GLOBAL| Run type                                                         ENERGY
 GLOBAL| FFT library                                                       FFTW3
 GLOBAL| Diagonalization library                                       ScaLAPACK
 GLOBAL| Cholesky decomposition library                                ScaLAPACK
 GLOBAL| DGEMM library                                                      BLAS
 GLOBAL| Orthonormality check for eigenvectors                          DISABLED
 GLOBAL| Matrix multiplication library                                     COSMA
 GLOBAL| All-to-all communication in single precision                          F
 GLOBAL| FFTs using library dependent lengths                                  F
 GLOBAL| Grid backend                                                       AUTO
 GLOBAL| Global print level                                                  LOW
 GLOBAL| MPI I/O enabled                                                       T
 GLOBAL| Total number of message passing processes                            16
 GLOBAL| Number of distributed systems (nodes)                                 1
 GLOBAL| Number of threads for this process                                    2
 GLOBAL| This output is from process                                           0
 GLOBAL| OpenMP stack size per thread (OMP_STACKSIZE)                    default
 GLOBAL| CPU model name                                            AMD EPYC 9R14
 GLOBAL| CPUID                                                              1003
 GLOBAL| Compiled for CPUID                                                 1002

 *** HINT in environment.F:960 :: The compiler target flags (x86_avx2)     ***
 *** used to build this binary cannot exploit all extensions of this CPU   ***
 *** model (x86_avx512). Consider compiler target flags as part of FCFLAGS ***
 *** and CFLAGS (ARCH file).                                               ***


 MEMORY| system memory details [Kb]
 MEMORY|                        rank 0           min           max       average
 MEMORY| MemTotal             64430560      64430560      64430560      64430560
 MEMORY| MemFree              56391012      56391012      56391012      56391012
 MEMORY| Buffers                  3172          3172          3172          3172
 MEMORY| Cached                4566080       4566080       4566080       4566080
 MEMORY| Slab                   307312        307312        307312        307312
 MEMORY| SReclaimable           120532        120532        120532        120532
 MEMORY| MemLikelyFree        61080796      61080796      61080796      61080796


 GENERATE|  Preliminary Number of Bonds generated:                             0
 GENERATE|  Achieved consistency in connectivity generation.

 *******************************************************************************
 *******************************************************************************
 **                                                                           **
 **     #####                         ##              ##                      **
 **    ##   ##            ##          ##              ##                      **
 **   ##     ##                       ##            ######                    **
 **   ##     ##  ##   ##  ##   #####  ##  ##   ####   ##    #####    #####    **
 **   ##     ##  ##   ##  ##  ##      ## ##   ##      ##   ##   ##  ##   ##   **
 **   ##  ## ##  ##   ##  ##  ##      ####     ###    ##   ######   ######    **
 **    ##  ###   ##   ##  ##  ##      ## ##      ##   ##   ##       ##        **
 **     #######   #####   ##   #####  ##  ##  ####    ##    #####   ##        **
 **           ##                                                    ##        **
 **                                                                           **
 **                                                ... make the atoms dance   **
 **                                                                           **
 **            Copyright (C) by CP2K developers group (2000-2026)             **
 **                      J. Chem. Phys. 152, 194103 (2020)                    **
 **                                                                           **
 *******************************************************************************


 TOTAL NUMBERS AND MAXIMUM NUMBERS

  Total number of            - Atomic kinds:                                   4
                             - Atoms:                                        146
                             - Shell sets:                                   146
                             - Shells:                                       700
                             - Primitive Cartesian functions:                730
                             - Cartesian basis functions:                   1909
                             - Spherical basis functions:                   1778

  Maximum angular momentum of- Orbital basis functions:                        2
                             - Local part of the GTH pseudopotential:          2
                             - Non-local part of the GTH pseudopotential:      4


 SCF PARAMETERS         Density guess:                                    ATOMIC
                        --------------------------------------------------------
                        max_scf:                                             260
                        max_scf_history:                                       0
                        max_diis:                                              4
                        --------------------------------------------------------
                        eps_scf:                                        1.00E-05
                        eps_scf_history:                                0.00E+00
                        eps_diis:                                       0.00E+00
                        eps_eigval:                                     1.00E-05
                        --------------------------------------------------------
                        level_shift [a.u.]:                             0.000000
                        --------------------------------------------------------
                        Outer loop SCF in use 
                        No variables optimised in outer loop
                        eps_scf                                         1.00E-05
                        max_scf                                               10
                        No outer loop optimization
                        step_size                                       5.00E-01

 Extrapolation method: initial_guess

 Spin 1

 Number of electrons:                                                        274
 Number of occupied orbitals:                                                274
 Number of molecular orbitals:                                               274

 Spin 2

 Number of electrons:                                                        273
 Number of occupied orbitals:                                                273
 Number of molecular orbitals:                                               273

 Number of orbital functions:                                               1778
 Number of independent orbital functions:                                   1778


 SCF WAVEFUNCTION OPTIMIZATION

  ----------------------------------- OT ---------------------------------------
  Minimizer      : DIIS                : direct inversion
                                         in the iterative subspace
                                         using   7 DIIS vectors
                                         safer DIIS on
  Preconditioner : FULL_SINGLE_INVERSE : inversion of 
                                         H + eS - 2*(Sc)(c^T*H*c+const)(Sc)^T
  Precond_solver : DEFAULT
  stepsize       :    0.08000000                  energy_gap     :    0.08000000
  eps_taylor     :   0.10000E-15                  max_taylor     :             4
  ----------------------------------- OT ---------------------------------------

  Step     Update method      Time    Convergence         Total energy    Change
  ------------------------------------------------------------------------------
     1 OT DIIS     0.80E-01    1.3     0.01412436      -725.4585315545 -7.25E+02
     2 OT DIIS     0.80E-01    1.1     0.01258167      -736.9830130366 -1.15E+01
     3 OT DIIS     0.80E-01    1.1     0.01054721      -743.1531389547 -6.17E+00
     4 OT DIIS     0.80E-01    1.1     0.00870861      -754.0095338396 -1.09E+01
     5 OT DIIS     0.80E-01    1.0     0.00547087      -766.0662937222 -1.21E+01
     6 OT DIIS     0.80E-01    1.0     0.00430519      -769.1549761445 -3.09E+00
     7 OT DIIS     0.80E-01    1.0     0.00262347      -772.9316561715 -3.78E+00
     8 OT DIIS     0.80E-01    1.1     0.00212519      -773.8436316626 -9.12E-01
     9 OT DIIS     0.80E-01    1.1     0.00148830      -774.9809152705 -1.14E+00
    10 OT DIIS     0.80E-01    1.1     0.00125452      -775.3555737081 -3.75E-01
    11 OT DIIS     0.80E-01    1.1     0.00097583      -775.8138826416 -4.58E-01
    12 OT DIIS     0.80E-01    1.1     0.00081742      -776.0327233177 -2.19E-01
    13 OT DIIS     0.80E-01    1.1     0.00066196      -776.2623191717 -2.30E-01
    14 OT DIIS     0.80E-01    1.1     0.00055118      -776.3878891428 -1.26E-01
    15 OT DIIS     0.80E-01    1.1     0.00045403      -776.5194146260 -1.32E-01
    16 OT DIIS     0.80E-01    1.1     0.00037917      -776.5945656652 -7.52E-02
    17 OT DIIS     0.80E-01    1.1     0.00033485      -776.6519244904 -5.74E-02
    18 OT DIIS     0.80E-01    1.1     0.00029175      -776.6958264281 -4.39E-02
    19 OT DIIS     0.80E-01    1.1     0.00026843      -776.7314307981 -3.56E-02
    20 OT DIIS     0.80E-01    1.1     0.00023342      -776.7556075001 -2.42E-02
    21 OT DIIS     0.80E-01    1.1     0.00020035      -776.7929812763 -3.74E-02
    22 OT DIIS     0.80E-01    1.1     0.00018519      -776.8089864525 -1.60E-02
    23 OT DIIS     0.80E-01    1.1     0.00016389      -776.8376837767 -2.87E-02
    24 OT DIIS     0.80E-01    1.1     0.00015260      -776.8450405861 -7.36E-03
    25 OT DIIS     0.80E-01    1.1     0.00013487      -776.8680934449 -2.31E-02
    26 OT DIIS     0.80E-01    1.1     0.00013230      -776.8699573491 -1.86E-03
    27 OT DIIS     0.80E-01    1.1     0.00012533      -776.8743400800 -4.38E-03
    28 OT DIIS     0.80E-01    1.1     0.00010796      -776.8904041385 -1.61E-02
    29 OT DIIS     0.80E-01    1.1     0.00009764      -776.8989444757 -8.54E-03
    30 OT DIIS     0.80E-01    1.1     0.00010767      -776.9029318508 -3.99E-03
    31 OT DIIS     0.80E-01    1.0     0.00008175      -776.9112986122 -8.37E-03
    32 OT DIIS     0.80E-01    1.0     0.00007770      -776.9150976825 -3.80E-03
    33 OT DIIS     0.80E-01    1.0     0.00006802      -776.9199580214 -4.86E-03
    34 OT DIIS     0.80E-01    1.0     0.00007345      -776.9216886501 -1.73E-03
    35 OT DIIS     0.80E-01    1.0     0.00007012      -776.9225359992 -8.47E-04
    36 OT SD       0.80E-01    1.0     0.00006391      -776.9238649589 -1.33E-03
    37 OT DIIS     0.80E-01    1.0     0.00006155      -776.9241761385 -3.11E-04
    38 OT DIIS     0.80E-01    1.0     0.00005490      -776.9282578163 -4.08E-03
    39 OT DIIS     0.80E-01    1.0     0.00005098      -776.9313115168 -3.05E-03
    40 OT DIIS     0.80E-01    1.0     0.00004713      -776.9340044428 -2.69E-03
    41 OT DIIS     0.80E-01    1.1     0.00004339      -776.9358323813 -1.83E-03
    42 OT SD       0.80E-01    1.0     0.00004287      -776.9381761807 -2.34E-03
    43 OT DIIS     0.80E-01    1.0     0.00004126      -776.9383162144 -1.40E-04
    44 OT DIIS     0.80E-01    1.0     0.00003553      -776.9405439205 -2.23E-03
    45 OT DIIS     0.80E-01    1.0     0.00003288      -776.9420636435 -1.52E-03
    46 OT DIIS     0.80E-01    1.0     0.00003094      -776.9429610969 -8.97E-04
    47 OT DIIS     0.80E-01    1.0     0.00002900      -776.9438556085 -8.95E-04
    48 OT DIIS     0.80E-01    1.0     0.00002915      -776.9447906867 -9.35E-04
    49 OT DIIS     0.80E-01    1.0     0.00002621      -776.9452827954 -4.92E-04
    50 OT DIIS     0.80E-01    1.0     0.00002518      -776.9458153702 -5.33E-04
    51 OT DIIS     0.80E-01    1.0     0.00002297      -776.9469560690 -1.14E-03
    52 OT DIIS     0.80E-01    1.0     0.00002176      -776.9474877911 -5.32E-04
    53 OT DIIS     0.80E-01    1.0     0.00002058      -776.9481830709 -6.95E-04
    54 OT DIIS     0.80E-01    1.0     0.00002042      -776.9484402644 -2.57E-04
    55 OT DIIS     0.80E-01    1.0     0.00001899      -776.9488719246 -4.32E-04
    56 OT DIIS     0.80E-01    1.1     0.00001804      -776.9491339146 -2.62E-04
    57 OT DIIS     0.80E-01    1.1     0.00001753      -776.9493143705 -1.80E-04
    58 OT DIIS     0.80E-01    1.1     0.00001658      -776.9498214347 -5.07E-04
    59 OT DIIS     0.80E-01    1.1     0.00001620      -776.9500260956 -2.05E-04
    60 OT DIIS     0.80E-01    1.0     0.00001541      -776.9505387537 -5.13E-04
    61 OT DIIS     0.80E-01    1.0     0.00001520      -776.9505942221 -5.55E-05
    62 OT DIIS     0.80E-01    1.0     0.00001471      -776.9508092958 -2.15E-04
    63 OT DIIS     0.80E-01    0.9     0.00001425      -776.9511809279 -3.72E-04
    64 OT DIIS     0.80E-01    0.9     0.00001404      -776.9513103285 -1.29E-04
    65 OT DIIS     0.80E-01    0.9     0.00001382      -776.9515703205 -2.60E-04
    66 OT DIIS     0.80E-01    0.9     0.00001363      -776.9517661317 -1.96E-04
    67 OT DIIS     0.80E-01    0.9     0.00001355      -776.9518378126 -7.17E-05
    68 OT DIIS     0.80E-01    0.9     0.00001330      -776.9520913414 -2.54E-04
    69 OT DIIS     0.80E-01    0.9     0.00001318      -776.9521875392 -9.62E-05
    70 OT DIIS     0.80E-01    0.9     0.00001304      -776.9524032915 -2.16E-04
    71 OT DIIS     0.80E-01    0.9     0.00001298      -776.9524956109 -9.23E-05
    72 OT DIIS     0.80E-01    0.9     0.00001293      -776.9526707805 -1.75E-04
    73 OT DIIS     0.80E-01    0.9     0.00001291      -776.9526765610 -5.78E-06
    74 OT DIIS     0.80E-01    0.9     0.00001289      -776.9527286144 -5.21E-05
    75 OT DIIS     0.80E-01    0.9     0.00001289      -776.9527707323 -4.21E-05
    76 OT DIIS     0.80E-01    0.9     0.00001289      -776.9527813250 -1.06E-05
    77 OT SD       0.80E-01    0.9     0.00001289      -776.9528277208 -4.64E-05
    78 OT SD       0.80E-01    0.9     0.00001289      -776.9528406467 -1.29E-05
    79 OT SD       0.80E-01    0.9     0.00001289      -776.9528535761 -1.29E-05
    80 OT SD       0.80E-01    0.9     0.00001289      -776.9528665098 -1.29E-05
    81 OT SD       0.80E-01    1.0     0.00001290      -776.9528794485 -1.29E-05
    82 OT SD       0.80E-01    0.9     0.00001290      -776.9528923927 -1.29E-05
    83 OT SD       0.80E-01    0.9     0.00001290      -776.9529053427 -1.30E-05
    84 OT SD       0.80E-01    0.9     0.00001291      -776.9529182990 -1.30E-05
    85 OT SD       0.80E-01    0.9     0.00001291      -776.9529312620 -1.30E-05
    86 OT SD       0.80E-01    0.9     0.00001291      -776.9529442320 -1.30E-05
    87 OT SD       0.80E-01    0.9     0.00001292      -776.9529572092 -1.30E-05
    88 OT SD       0.80E-01    0.9     0.00001292      -776.9529701941 -1.30E-05
    89 OT SD       0.80E-01    0.9     0.00001293      -776.9529831870 -1.30E-05
    90 OT SD       0.80E-01    0.9     0.00001293      -776.9529961880 -1.30E-05
    91 OT SD       0.80E-01    0.9     0.00001293      -776.9530091976 -1.30E-05
    92 OT SD       0.80E-01    0.9     0.00001294      -776.9530222159 -1.30E-05
    93 OT SD       0.80E-01    0.9     0.00001294      -776.9530352433 -1.30E-05
    94 OT SD       0.80E-01    0.9     0.00001295      -776.9530482801 -1.30E-05
    95 OT SD       0.80E-01    0.9     0.00001295      -776.9530613264 -1.30E-05
    96 OT SD       0.80E-01    0.9     0.00001296      -776.9530743827 -1.31E-05
    97 OT SD       0.80E-01    0.9     0.00001296      -776.9530874491 -1.31E-05
    98 OT SD       0.80E-01    0.9     0.00001297      -776.9531005259 -1.31E-05
    99 OT SD       0.80E-01    0.9     0.00001297      -776.9531136134 -1.31E-05
   100 OT SD       0.80E-01    0.9     0.00001298      -776.9531267117 -1.31E-05
   101 OT SD       0.80E-01    0.9     0.00001298      -776.9531398213 -1.31E-05
   102 OT SD       0.80E-01    0.9     0.00001299      -776.9531529422 -1.31E-05
   103 OT SD       0.80E-01    0.9     0.00001300      -776.9531660749 -1.31E-05
   104 OT SD       0.80E-01    0.9     0.00001300      -776.9531792194 -1.31E-05
   105 OT SD       0.80E-01    0.9     0.00001301      -776.9531923761 -1.32E-05
   106 OT SD       0.80E-01    1.0     0.00001301      -776.9532055452 -1.32E-05
   107 OT SD       0.80E-01    0.9     0.00001302      -776.9532187270 -1.32E-05
   108 OT SD       0.80E-01    0.9     0.00001303      -776.9532319217 -1.32E-05
   109 OT SD       0.80E-01    0.9     0.00001303      -776.9532451294 -1.32E-05
   110 OT SD       0.80E-01    0.9     0.00001304      -776.9532583506 -1.32E-05
   111 OT SD       0.80E-01    0.9     0.00001305      -776.9532715854 -1.32E-05
   112 OT SD       0.80E-01    0.9     0.00001305      -776.9532848340 -1.32E-05
   113 OT SD       0.80E-01    0.9     0.00001306      -776.9532980966 -1.33E-05
   114 OT SD       0.80E-01    0.9     0.00001307      -776.9533113736 -1.33E-05
   115 OT SD       0.80E-01    0.9     0.00001308      -776.9533246652 -1.33E-05
   116 OT SD       0.80E-01    0.9     0.00001308      -776.9533379715 -1.33E-05
   117 OT SD       0.80E-01    0.9     0.00001309      -776.9533512929 -1.33E-05
   118 OT SD       0.80E-01    0.9     0.00001310      -776.9533646295 -1.33E-05
   119 OT SD       0.80E-01    0.9     0.00001311      -776.9533779816 -1.34E-05
   120 OT SD       0.80E-01    0.9     0.00001311      -776.9533913493 -1.34E-05
   121 OT SD       0.80E-01    0.9     0.00001312      -776.9534047331 -1.34E-05
   122 OT SD       0.80E-01    0.9     0.00001313      -776.9534181330 -1.34E-05
   123 OT SD       0.80E-01    0.9     0.00001314      -776.9534315493 -1.34E-05
   124 OT SD       0.80E-01    0.9     0.00001315      -776.9534449822 -1.34E-05
   125 OT SD       0.80E-01    0.9     0.00001315      -776.9534584320 -1.34E-05
   126 OT SD       0.80E-01    0.9     0.00001316      -776.9534718989 -1.35E-05
   127 OT SD       0.80E-01    0.9     0.00001317      -776.9534853831 -1.35E-05
   128 OT SD       0.80E-01    0.9     0.00001318      -776.9534988848 -1.35E-05
   129 OT SD       0.80E-01    0.9     0.00001319      -776.9535124043 -1.35E-05
   130 OT SD       0.80E-01    0.9     0.00001320      -776.9535259418 -1.35E-05
   131 OT SD       0.80E-01    0.9     0.00001321      -776.9535394975 -1.36E-05
   132 OT SD       0.80E-01    0.9     0.00001322      -776.9535530717 -1.36E-05
   133 OT SD       0.80E-01    0.9     0.00001322      -776.9535666645 -1.36E-05
   134 OT SD       0.80E-01    0.9     0.00001323      -776.9535802763 -1.36E-05
   135 OT SD       0.80E-01    0.9     0.00001324      -776.9535939071 -1.36E-05
   136 OT SD       0.80E-01    0.9     0.00001325      -776.9536075574 -1.37E-05
   137 OT SD       0.80E-01    0.9     0.00001326      -776.9536212272 -1.37E-05
   138 OT SD       0.80E-01    0.9     0.00001327      -776.9536349168 -1.37E-05
   139 OT SD       0.80E-01    0.9     0.00001328      -776.9536486264 -1.37E-05
   140 OT SD       0.80E-01    0.9     0.00001329      -776.9536623563 -1.37E-05
   141 OT SD       0.80E-01    0.9     0.00001330      -776.9536761066 -1.38E-05
 Singular DIIS matrix
   142 OT SD       0.80E-01    0.9     0.00001331      -776.9536898777 -1.38E-05
   143 OT SD       0.80E-01    0.9     0.00001332      -776.9537036696 -1.38E-05
   144 OT SD       0.80E-01    1.0     0.00001333      -776.9537174828 -1.38E-05
   145 OT SD       0.80E-01    0.9     0.00001334      -776.9537313173 -1.38E-05
   146 OT SD       0.80E-01    0.9     0.00001335      -776.9537451734 -1.39E-05
   147 OT SD       0.80E-01    0.9     0.00001336      -776.9537590513 -1.39E-05
   148 OT SD       0.80E-01    0.9     0.00001337      -776.9537729513 -1.39E-05
   149 OT SD       0.80E-01    0.9     0.00001338      -776.9537868735 -1.39E-05
   150 OT SD       0.80E-01    0.9     0.00001340      -776.9538008182 -1.39E-05
   151 OT SD       0.80E-01    0.9     0.00001341      -776.9538147856 -1.40E-05
   152 OT SD       0.80E-01    0.9     0.00001342      -776.9538287760 -1.40E-05
   153 OT SD       0.80E-01    0.9     0.00001343      -776.9538427896 -1.40E-05
   154 OT SD       0.80E-01    0.9     0.00001344      -776.9538568265 -1.40E-05
   155 OT SD       0.80E-01    0.9     0.00001345      -776.9538708870 -1.41E-05
   156 OT SD       0.80E-01    0.9     0.00001346      -776.9538849714 -1.41E-05
   157 OT SD       0.80E-01    0.9     0.00001347      -776.9538990798 -1.41E-05
   158 OT SD       0.80E-01    0.9     0.00001349      -776.9539132125 -1.41E-05
   159 OT SD       0.80E-01    0.9     0.00001350      -776.9539273697 -1.42E-05
   160 OT SD       0.80E-01    0.9     0.00001351      -776.9539415517 -1.42E-05
   161 OT SD       0.80E-01    0.9     0.00001352      -776.9539557585 -1.42E-05
   162 OT SD       0.80E-01    0.9     0.00001353      -776.9539699906 -1.42E-05
   163 OT SD       0.80E-01    0.9     0.00001355      -776.9539842480 -1.43E-05
   164 OT SD       0.80E-01    0.9     0.00001356      -776.9539985311 -1.43E-05
   165 OT SD       0.80E-01    0.9     0.00001357      -776.9540128400 -1.43E-05
   166 OT SD       0.80E-01    0.9     0.00001358      -776.9540271750 -1.43E-05
   167 OT SD       0.80E-01    0.9     0.00001360      -776.9540415362 -1.44E-05
   168 OT SD       0.80E-01    0.9     0.00001361      -776.9540559240 -1.44E-05
   169 OT SD       0.80E-01    0.9     0.00001362      -776.9540703385 -1.44E-05
   170 OT SD       0.80E-01    0.9     0.00001363      -776.9540847799 -1.44E-05
   171 OT SD       0.80E-01    0.9     0.00001365      -776.9540992486 -1.45E-05
   172 OT SD       0.80E-01    0.9     0.00001366      -776.9541137446 -1.45E-05
   173 OT SD       0.80E-01    0.9     0.00001367      -776.9541282682 -1.45E-05
   174 OT SD       0.80E-01    0.9     0.00001369      -776.9541428197 -1.46E-05
   175 OT SD       0.80E-01    1.0     0.00001370      -776.9541573993 -1.46E-05
   176 OT SD       0.80E-01    1.0     0.00001371      -776.9541720072 -1.46E-05
   177 OT SD       0.80E-01    1.0     0.00001373      -776.9541866435 -1.46E-05
   178 OT SD       0.80E-01    1.0     0.00001374      -776.9542013086 -1.47E-05
   179 OT SD       0.80E-01    1.0     0.00001375      -776.9542160027 -1.47E-05
   180 OT SD       0.80E-01    1.0     0.00001377      -776.9542307259 -1.47E-05
   181 OT SD       0.80E-01    1.0     0.00001378      -776.9542454785 -1.48E-05
   182 OT SD       0.80E-01    1.0     0.00001379      -776.9542602608 -1.48E-05
   183 OT SD       0.80E-01    1.0     0.00001381      -776.9542750729 -1.48E-05
   184 OT SD       0.80E-01    1.0     0.00001382      -776.9542899151 -1.48E-05
   185 OT SD       0.80E-01    1.0     0.00001384      -776.9543047876 -1.49E-05
   186 OT SD       0.80E-01    1.0     0.00001385      -776.9543196905 -1.49E-05
   187 OT SD       0.80E-01    1.0     0.00001386      -776.9543346243 -1.49E-05
   188 OT SD       0.80E-01    1.0     0.00001388      -776.9543495889 -1.50E-05
   189 OT SD       0.80E-01    1.0     0.00001389      -776.9543645848 -1.50E-05
   190 OT SD       0.80E-01    1.0     0.00001391      -776.9543796120 -1.50E-05
   191 OT SD       0.80E-01    1.0     0.00001392      -776.9543946709 -1.51E-05
   192 OT SD       0.80E-01    1.0     0.00001394      -776.9544097616 -1.51E-05
   193 OT SD       0.80E-01    1.0     0.00001395      -776.9544248844 -1.51E-05
   194 OT SD       0.80E-01    1.0     0.00001397      -776.9544400395 -1.52E-05
   195 OT SD       0.80E-01    1.0     0.00001398      -776.9544552271 -1.52E-05
   196 OT SD       0.80E-01    1.0     0.00001400      -776.9544704474 -1.52E-05
   197 OT SD       0.80E-01    1.0     0.00001401      -776.9544857006 -1.53E-05
   198 OT SD       0.80E-01    1.0     0.00001403      -776.9545009870 -1.53E-05
   199 OT SD       0.80E-01    1.0     0.00001404      -776.9545163069 -1.53E-05
   200 OT SD       0.80E-01    1.0     0.00001406      -776.9545316603 -1.54E-05
   201 OT SD       0.80E-01    1.0     0.00001407      -776.9545470475 -1.54E-05
   202 OT SD       0.80E-01    1.0     0.00001409      -776.9545624688 -1.54E-05
   203 OT SD       0.80E-01    1.0     0.00001411      -776.9545779244 -1.55E-05
   204 OT SD       0.80E-01    1.0     0.00001412      -776.9545934145 -1.55E-05
   205 OT SD       0.80E-01    1.0     0.00001414      -776.9546089393 -1.55E-05
   206 OT SD       0.80E-01    1.0     0.00001415      -776.9546244990 -1.56E-05
   207 OT SD       0.80E-01    1.0     0.00001417      -776.9546400938 -1.56E-05
   208 OT SD       0.80E-01    0.9     0.00001419      -776.9546557241 -1.56E-05
   209 OT SD       0.80E-01    1.0     0.00001420      -776.9546713899 -1.57E-05
   210 OT SD       0.80E-01    1.0     0.00001422      -776.9546870915 -1.57E-05
   211 OT SD       0.80E-01    1.0     0.00001423      -776.9547028292 -1.57E-05
   212 OT SD       0.80E-01    1.0     0.00001425      -776.9547186030 -1.58E-05
   213 OT SD       0.80E-01    1.0     0.00001427      -776.9547344134 -1.58E-05
   214 OT SD       0.80E-01    1.0     0.00001428      -776.9547502604 -1.58E-05
   215 OT SD       0.80E-01    1.0     0.00001430      -776.9547661444 -1.59E-05
   216 OT SD       0.80E-01    1.0     0.00001432      -776.9547820654 -1.59E-05
   217 OT SD       0.80E-01    1.0     0.00001433      -776.9547980238 -1.60E-05
   218 OT SD       0.80E-01    1.0     0.00001435      -776.9548140197 -1.60E-05
   219 OT SD       0.80E-01    1.0     0.00001437      -776.9548300534 -1.60E-05
   220 OT SD       0.80E-01    1.0     0.00001439      -776.9548461251 -1.61E-05
   221 OT SD       0.80E-01    1.0     0.00001440      -776.9548622350 -1.61E-05
   222 OT SD       0.80E-01    1.0     0.00001442      -776.9548783832 -1.61E-05
   223 OT SD       0.80E-01    1.0     0.00001444      -776.9548945702 -1.62E-05
   224 OT SD       0.80E-01    1.0     0.00001445      -776.9549107959 -1.62E-05
   225 OT SD       0.80E-01    1.0     0.00001447      -776.9549270607 -1.63E-05
   226 OT SD       0.80E-01    1.0     0.00001449      -776.9549433648 -1.63E-05
   227 OT SD       0.80E-01    1.0     0.00001451      -776.9549597084 -1.63E-05
   228 OT SD       0.80E-01    1.0     0.00001452      -776.9549760916 -1.64E-05
   229 OT SD       0.80E-01    1.0     0.00001454      -776.9549925148 -1.64E-05
   230 OT SD       0.80E-01    1.0     0.00001456      -776.9550089781 -1.65E-05
   231 OT SD       0.80E-01    1.0     0.00001458      -776.9550254818 -1.65E-05
   232 OT SD       0.80E-01    1.0     0.00001460      -776.9550420260 -1.65E-05
   233 OT SD       0.80E-01    1.0     0.00001461      -776.9550586109 -1.66E-05
   234 OT SD       0.80E-01    1.0     0.00001463      -776.9550752368 -1.66E-05
   235 OT SD       0.80E-01    1.0     0.00001465      -776.9550919039 -1.67E-05
   236 OT SD       0.80E-01    1.0     0.00001467      -776.9551086124 -1.67E-05
   237 OT SD       0.80E-01    1.0     0.00001469      -776.9551253625 -1.68E-05
   238 OT SD       0.80E-01    1.0     0.00001470      -776.9551421544 -1.68E-05
   239 OT SD       0.80E-01    1.0     0.00001472      -776.9551589884 -1.68E-05
   240 OT SD       0.80E-01    1.0     0.00001474      -776.9551758645 -1.69E-05
   241 OT SD       0.80E-01    1.0     0.00001476      -776.9551927831 -1.69E-05
   242 OT SD       0.80E-01    1.0     0.00001478      -776.9552097443 -1.70E-05
   243 OT SD       0.80E-01    1.0     0.00001480      -776.9552267484 -1.70E-05
   244 OT SD       0.80E-01    1.0     0.00001482      -776.9552437956 -1.70E-05
   245 OT SD       0.80E-01    1.0     0.00001483      -776.9552608860 -1.71E-05
   246 OT SD       0.80E-01    1.0     0.00001485      -776.9552780198 -1.71E-05
   247 OT SD       0.80E-01    1.0     0.00001487      -776.9552951974 -1.72E-05
   248 OT SD       0.80E-01    1.0     0.00001489      -776.9553124188 -1.72E-05
   249 OT SD       0.80E-01    1.0     0.00001491      -776.9553296843 -1.73E-05
   250 OT SD       0.80E-01    1.0     0.00001493      -776.9553469941 -1.73E-05
   251 OT SD       0.80E-01    1.0     0.00001495      -776.9553643484 -1.74E-05
   252 OT SD       0.80E-01    1.0     0.00001497      -776.9553817473 -1.74E-05
   253 OT SD       0.80E-01    1.0     0.00001499      -776.9553991912 -1.74E-05
   254 OT SD       0.80E-01    1.0     0.00001501      -776.9554166801 -1.75E-05
   255 OT SD       0.80E-01    1.0     0.00001503      -776.9554342144 -1.75E-05
   256 OT SD       0.80E-01    1.0     0.00001505      -776.9554517941 -1.76E-05
   257 OT SD       0.80E-01    1.0     0.00001507      -776.9554694195 -1.76E-05
   258 OT SD       0.80E-01    1.0     0.00001509      -776.9554870908 -1.77E-05
   259 OT SD       0.80E-01    1.0     0.00001510      -776.9555048082 -1.77E-05
   260 OT SD       0.80E-01    1.0     0.00001512      -776.9555225719 -1.78E-05

  Leaving inner SCF loop after reaching   260 steps.


  Electronic density on regular grids:       -546.9999010023        0.0000989977
  Core density on regular grids:              547.0001996275        0.0001996275
  Total charge density on r-space grids:        0.0002986252
  Total charge density g-space grids:           0.0002986252

  Overlap energy of the core charge distribution:               0.00002768523856
  Self energy of the core charge distribution:              -1818.93091964841528
  Core Hamiltonian energy:                                    565.01619847091160
  Hartree energy:                                             714.61591899943232
  Exchange-correlation energy:                               -237.25253110099797
  Dispersion energy:                                           -0.40421697805823

  Total energy:                                              -776.95552257188899

  outer SCF iter =    1 RMS gradient =   0.15E-04 energy =       -776.9555225719

  ----------------------------------- OT ---------------------------------------
  Minimizer      : DIIS                : direct inversion
                                         in the iterative subspace
                                         using   7 DIIS vectors
                                         safer DIIS on
  Preconditioner : FULL_SINGLE_INVERSE : inversion of 
                                         H + eS - 2*(Sc)(c^T*H*c+const)(Sc)^T
  Precond_solver : DEFAULT
  stepsize       :    0.08000000                  energy_gap     :    0.08000000
  eps_taylor     :   0.10000E-15                  max_taylor     :             4
  ----------------------------------- OT ---------------------------------------

  Step     Update method      Time    Convergence         Total energy    Change
  ------------------------------------------------------------------------------
     1 OT DIIS     0.80E-01    2.3     0.00013571      -776.9555403820 -1.78E-05
     2 OT DIIS     0.80E-01    0.9     0.00010820      -776.9568117446 -1.27E-03
     3 OT DIIS     0.80E-01    0.9     0.00007959      -776.9587192955 -1.91E-03
     4 OT DIIS     0.80E-01    0.9     0.00007710      -776.9595422904 -8.23E-04
     5 OT SD       0.80E-01    0.9     0.00007749      -776.9600938152 -5.52E-04
     6 OT SD       0.80E-01    0.9     0.00007869      -776.9605643580 -4.71E-04
     7 OT SD       0.80E-01    0.9     0.00008017      -776.9610505361 -4.86E-04
     8 OT SD       0.80E-01    1.0     0.00008183      -776.9615557205 -5.05E-04
     9 OT SD       0.80E-01    0.9     0.00008360      -776.9620822850 -5.27E-04
    10 OT SD       0.80E-01    1.0     0.00008543      -776.9626319745 -5.50E-04
    11 OT SD       0.80E-01    0.9     0.00008730      -776.9632060650 -5.74E-04
    12 OT SD       0.80E-01    1.0     0.00008918      -776.9638054463 -5.99E-04
    13 OT SD       0.80E-01    1.0     0.00009104      -776.9644306652 -6.25E-04
    14 OT SD       0.80E-01    0.9     0.00009285      -776.9650819426 -6.51E-04
    15 OT SD       0.80E-01    0.9     0.00009462      -776.9657591771 -6.77E-04
    16 OT SD       0.80E-01    0.9     0.00009630      -776.9664619490 -7.03E-04
    17 OT SD       0.80E-01    1.0     0.00009789      -776.9671895236 -7.28E-04
    18 OT SD       0.80E-01    0.9     0.00009938      -776.9679408501 -7.51E-04
    19 OT SD       0.80E-01    0.9     0.00010074      -776.9687145627 -7.74E-04
    20 OT SD       0.80E-01    0.9     0.00010196      -776.9695089775 -7.94E-04
    21 OT SD       0.80E-01    0.9     0.00010303      -776.9703221069 -8.13E-04
    22 OT SD       0.80E-01    1.0     0.00010393      -776.9711516878 -8.30E-04
    23 OT SD       0.80E-01    1.0     0.00010466      -776.9719951872 -8.43E-04
    24 OT DIIS     0.80E-01    0.9     0.00010521      -776.9728498369 -8.55E-04
    25 OT DIIS     0.80E-01    0.9     0.00015236      -776.9724801237  3.70E-04
    26 OT SD       0.80E-01    0.9     0.00015158      -776.9750591707 -2.58E-03
    27 OT SD       0.80E-01    0.9     0.00011677      -776.9765460775 -1.49E-03
    28 OT SD       0.80E-01    0.9     0.00011358      -776.9775881574 -1.04E-03
    29 OT SD       0.80E-01    0.9     0.00011188      -776.9785840288 -9.96E-04
    30 OT DIIS     0.80E-01    0.9     0.00011019      -776.9795506099 -9.67E-04
    31 OT DIIS     0.80E-01    0.9     0.00010566      -776.9923595129 -1.28E-02
    32 OT DIIS     0.80E-01    1.0     0.00009342      -776.9926501617 -2.91E-04
    33 OT DIIS     0.80E-01    1.0     0.00003439      -776.9935411369 -8.91E-04
    34 OT DIIS     0.80E-01    0.9     0.00003681      -776.9934383378  1.03E-04
    35 OT DIIS     0.80E-01    0.9     0.00002457      -776.9940522912 -6.14E-04
    36 OT DIIS     0.80E-01    1.0     0.00002614      -776.9941842777 -1.32E-04
    37 OT DIIS     0.80E-01    0.9     0.00001587      -776.9942746207 -9.03E-05
    38 OT DIIS     0.80E-01    1.0     0.00001047      -776.9943881529 -1.14E-04
    39 OT DIIS     0.80E-01    1.0     0.00000795      -776.9944313101 -4.32E-05

  *** SCF run converged in    39 steps ***


  Electronic density on regular grids:       -546.9999009368        0.0000990632
  Core density on regular grids:              547.0001996275        0.0001996275
  Total charge density on r-space grids:        0.0002986907
  Total charge density g-space grids:           0.0002986907

  Overlap energy of the core charge distribution:               0.00002768523856
  Self energy of the core charge distribution:              -1818.93091964841528
  Core Hamiltonian energy:                                    565.08141262851018
  Hartree energy:                                             714.56610347496166
  Exchange-correlation energy:                               -237.30683847233340
  Dispersion energy:                                           -0.40421697805823

  Total energy:                                              -776.99443131009650

  outer SCF iter =    2 RMS gradient =   0.79E-05 energy =       -776.9944313101
  outer SCF loop converged in   2 iterations or  299 steps


   Calculate PDOS at iteration step                                  0
 OT| Eigensolver reached convergence in 143 iterations

   Compute           40    additional unoccupied KS orbitals

              ---- PDOS: start iteration on the KS states --- 

   Calculate PDOS at iteration step                                  0
 OT| Eigensolver reached convergence in 203 iterations

   Compute           40    additional unoccupied KS orbitals

              ---- PDOS: start iteration on the KS states --- 

  Integrated spin density:                                          0.9999979401
  Integrated absolute spin density:                                 8.9741784856
  Ideal and single determinant S**2 :                    0.750000       2.752986

 !-----------------------------------------------------------------------------!
                     Mulliken Population Analysis

 #  Atom  Element  Kind  Atomic population (alpha,beta) Net charge  Spin moment
       1     C        1         2.183773     1.854991    -0.038764     0.328783
       2     C        1         1.958118     2.051857    -0.009975    -0.093739
       3     C        1         2.062267     1.942505    -0.004772     0.119762
       4     C        1         1.972549     2.028597    -0.001145    -0.056048
       5     C        1         2.036119     1.965704    -0.001823     0.070416
       6     C        1         1.980500     2.020133    -0.000633    -0.039633
       7     C        1         2.021184     1.979362    -0.000546     0.041821
       8     C        1         1.985722     2.014407    -0.000129    -0.028686
       9     C        1         2.016287     1.984176    -0.000463     0.032110
      10     C        1         1.979896     2.020466    -0.000362    -0.040570
      11     C        1         2.016528     1.983708    -0.000236     0.032820
      12     C        1         1.983380     2.015562     0.001058    -0.032181
      13     C        1         2.024957     1.975766    -0.000722     0.049191
      14     C        1         1.945917     2.058133    -0.004049    -0.112216
      15     C        1         2.049341     1.960100    -0.009442     0.089241
      16     C        1         1.854852     2.182051    -0.036903    -0.327200
      17     C        1         2.184116     1.854777    -0.038892     0.329339
      18     C        1         1.958356     2.051574    -0.009930    -0.093218
      19     C        1         2.062593     1.942254    -0.004846     0.120339
      20     C        1         1.972243     2.028970    -0.001213    -0.056728
      21     C        1         2.036334     1.965394    -0.001728     0.070939
      22     C        1         1.981502     2.018927    -0.000430    -0.037425
      23     C        1         2.021051     1.979513    -0.000563     0.041538
      24     C        1         1.984342     2.016018    -0.000360    -0.031676
      25     C        1         2.016133     1.984345    -0.000478     0.031788
      26     C        1         1.984703     2.015002     0.000295    -0.030299
      27     C        1         2.016467     1.983683    -0.000150     0.032784
      28     C        1         1.975676     2.024135     0.000190    -0.048459
      29     C        1         2.023546     1.976922    -0.000468     0.046623
      30     C        1         1.964946     2.036083    -0.001029    -0.071138
      31     C        1         2.043024     1.965145    -0.008170     0.077879
      32     C        1         1.855061     2.181300    -0.036362    -0.326239
      33     C        1         2.182577     1.856076    -0.038652     0.326501
      34     C        1         1.958624     2.051166    -0.009790    -0.092542
      35     C        1         2.063554     1.941304    -0.004857     0.122250
      36     C        1         1.971773     2.029450    -0.001223    -0.057677
      37     C        1         2.036024     1.965670    -0.001693     0.070354
      38     C        1         1.981710     2.018761    -0.000471    -0.037051
      39     C        1         2.021389     1.979143    -0.000533     0.042246
      40     C        1         1.982876     2.017596    -0.000472    -0.034720
      41     C        1         2.015667     1.984622    -0.000289     0.031046
      42     C        1         1.984958     2.014373     0.000669    -0.029414
      43     C        1         2.016233     1.983888    -0.000121     0.032345
      44     C        1         1.966753     2.034331    -0.001084    -0.067578
      45     C        1         2.020986     1.978515     0.000499     0.042470
      46     C        1         1.966395     2.031441     0.002164    -0.065046
      47     C        1         2.030297     1.973902    -0.004199     0.056395
      48     C        1         1.883914     2.145907    -0.029821    -0.261993
      49     C        1         2.181962     1.856512    -0.038474     0.325451
      50     C        1         1.958571     2.051224    -0.009795    -0.092653
      51     C        1         2.062851     1.941938    -0.004789     0.120913
      52     C        1         1.971973     2.029158    -0.001130    -0.057185
      53     C        1         2.035913     1.965852    -0.001765     0.070060
      54     C        1         1.980486     2.020200    -0.000686    -0.039714
      55     C        1         2.021162     1.979435    -0.000598     0.041727
      56     C        1         1.984703     2.015345    -0.000048    -0.030643
      57     C        1         2.015045     1.985101    -0.000145     0.029944
      58     C        1         1.980079     2.019840     0.000081    -0.039762
      59     C        1         2.016566     1.984049    -0.000615     0.032518
      60     C        1         1.970736     2.029349    -0.000085    -0.058614
      61     C        1         2.018311     1.980905     0.000784     0.037406
      62     C        1         1.949061     2.049104     0.001835    -0.100043
      63     C        1         2.034939     1.990155    -0.025094     0.044783
      64     C        1         1.947058     2.056464    -0.003522    -0.109406
      65     C        1         2.183769     1.854885    -0.038654     0.328884
      66     C        1         1.958652     2.051321    -0.009973    -0.092669
      67     C        1         2.062479     1.942272    -0.004751     0.120208
      68     C        1         1.972423     2.028705    -0.001128    -0.056282
      69     C        1         2.037562     1.964270    -0.001831     0.073292
      70     C        1         1.980382     2.020193    -0.000575    -0.039811
      71     C        1         2.021252     1.979366    -0.000617     0.041886
      72     C        1         1.986605     2.013186     0.000209    -0.026580
      73     C        1         2.017356     1.983402    -0.000758     0.033955
      74     C        1         1.980089     2.019835     0.000076    -0.039745
      75     C        1         2.016747     1.983783    -0.000529     0.032964
      76     C        1         1.975932     2.022468     0.001600    -0.046536
      77     C        1         2.024982     1.978424    -0.003406     0.046558
      78     C        1         1.949582     2.048661     0.001757    -0.099079
      79     C        1         2.036076     1.989250    -0.025326     0.046826
      80     C        1         1.942276     1.943880     0.113843    -0.001604
      81     C        1         2.182674     1.856201    -0.038875     0.326473
      82     C        1         1.958842     2.051138    -0.009979    -0.092296
      83     C        1         2.063003     1.941806    -0.004808     0.121197
      84     C        1         1.972186     2.029017    -0.001203    -0.056832
      85     C        1         2.035976     1.965718    -0.001695     0.070258
      86     C        1         1.981630     2.018735    -0.000365    -0.037105
      87     C        1         2.021430     1.979123    -0.000553     0.042307
      88     C        1         1.984674     2.015514    -0.000187    -0.030840
      89     C        1         2.015168     1.985087    -0.000254     0.030081
      90     C        1         1.984969     2.014366     0.000665    -0.029398
      91     C        1         2.016371     1.983643    -0.000014     0.032728
      92     C        1         1.970139     2.029755     0.000106    -0.059615
      93     C        1         2.018601     1.980699     0.000700     0.037902
      94     C        1         1.967095     2.030760     0.002145    -0.063665
      95     C        1         2.031437     1.973003    -0.004440     0.058435
      96     C        1         1.942732     2.061766    -0.004498    -0.119034
      97     C        1         2.182204     1.856547    -0.038751     0.325658
      98     C        1         1.958617     2.051232    -0.009849    -0.092615
      99     C        1         2.062683     1.942215    -0.004898     0.120468
     100     C        1         1.971959     2.029268    -0.001227    -0.057309
     101     C        1         2.035909     1.965765    -0.001674     0.070144
     102     C        1         1.981663     2.018887    -0.000549    -0.037224
     103     C        1         2.021116     1.979431    -0.000546     0.041685
     104     C        1         1.982794     2.017673    -0.000467    -0.034879
     105     C        1         2.015800     1.984502    -0.000303     0.031298
     106     C        1         1.984450     2.015224     0.000326    -0.030774
     107     C        1         2.016529     1.983742    -0.000271     0.032787
     108     C        1         1.966817     2.034154    -0.000970    -0.067337
     109     C        1         2.021187     1.978340     0.000473     0.042847
     110     C        1         1.963966     2.036948    -0.000914    -0.072982
     111     C        1         2.043404     1.964772    -0.008176     0.078633
     112     C        1         1.881324     2.149201    -0.030526    -0.267877
     113     C        1         2.182795     1.855808    -0.038603     0.326987
     114     C        1         1.958269     2.051605    -0.009874    -0.093335
     115     C        1         2.062466     1.942341    -0.004807     0.120125
     116     C        1         1.972288     2.028868    -0.001156    -0.056580
     117     C        1         2.036123     1.965662    -0.001785     0.070461
     118     C        1         1.980618     2.020126    -0.000745    -0.039508
     119     C        1         2.021192     1.979334    -0.000526     0.041859
     120     C        1         1.984217     2.016026    -0.000243    -0.031808
     121     C        1         2.016220     1.984167    -0.000387     0.032054
     122     C        1         1.979738     2.020602    -0.000340    -0.040865
     123     C        1         2.016517     1.983831    -0.000348     0.032686
     124     C        1         1.976366     2.023509     0.000125    -0.047143
     125     C        1         2.023728     1.976687    -0.000414     0.047041
     126     C        1         1.944980     2.058958    -0.003938    -0.113979
     127     C        1         2.049202     1.960189    -0.009391     0.089013
     128     C        1         1.855739     2.181011    -0.036749    -0.325272
     129     H        2         0.463838     0.470628     0.065534    -0.006789
     130     H        2         0.470208     0.463529     0.066262     0.006679
     131     H        2         0.463738     0.470557     0.065706    -0.006819
     132     H        2         0.469961     0.463407     0.066632     0.006554
     133     H        2         0.463812     0.470546     0.065641    -0.006734
     134     H        2         0.468333     0.463051     0.068616     0.005282
     135     H        2         0.463897     0.470567     0.065536    -0.006670
     136     H        2         0.462835     0.460261     0.076904     0.002574
     137     H        2         0.463846     0.470468     0.065686    -0.006622
     138     H        2         0.463718     0.470468     0.065814    -0.006749
     139     H        2         0.462916     0.460117     0.076967     0.002799
     140     H        2         0.463787     0.470536     0.065677    -0.006749
     141     H        2         0.468454     0.462910     0.068635     0.005544
     142     H        2         0.463862     0.470667     0.065471    -0.006805
     143     H        2         0.470122     0.463530     0.066348     0.006591
     144     O        3         3.174343     3.145931    -0.320274     0.028411
     145     I        4         3.487471     3.488312     0.024218    -0.000841
     146     I        4         3.546264     3.545326    -0.091590     0.000937
 # Total charge and spin      274.000000   273.000000    -0.000000     1.000000

 !-----------------------------------------------------------------------------!

 Hirshfeld charge iterations: Residuals ...
   0.205   0.053   0.018   0.006
 !-----------------------------------------------------------------------------!
                           Hirshfeld Charges

  #Atom  Element  Kind  Ref Charge     Population       Spin moment  Net charge
      1       C      1       4.632    2.455   2.176            0.279     -0.632
      2       C      1       3.889    1.925   1.963           -0.038      0.111
      3       C      1       4.008    2.049   1.959            0.090     -0.008
      4       C      1       3.998    1.984   2.014           -0.029      0.002
      5       C      1       4.000    2.026   1.974            0.051     -0.000
      6       C      1       3.999    1.988   2.011           -0.023      0.001
      7       C      1       4.000    2.015   1.985            0.029     -0.000
      8       C      1       3.999    1.991   2.008           -0.018      0.001
      9       C      1       4.000    2.010   1.990            0.021      0.000
     10       C      1       4.000    1.986   2.014           -0.028      0.000
     11       C      1       4.001    2.011   1.990            0.021     -0.001
     12       C      1       3.994    1.986   2.007           -0.021      0.006
     13       C      1       3.999    2.013   1.986            0.026      0.001
     14       C      1       4.007    1.961   2.046           -0.084     -0.007
     15       C      1       3.888    1.962   1.927            0.035      0.112
     16       C      1       4.629    2.176   2.454           -0.278     -0.629
     17       C      1       4.632    2.455   2.176            0.279     -0.632
     18       C      1       3.889    1.926   1.963           -0.037      0.111
     19       C      1       4.008    2.049   1.959            0.091     -0.008
     20       C      1       3.998    1.984   2.014           -0.030      0.002
     21       C      1       4.000    2.026   1.974            0.052     -0.000
     22       C      1       3.999    1.989   2.010           -0.021      0.001
     23       C      1       4.000    2.014   1.985            0.029      0.000
     24       C      1       3.999    1.990   2.010           -0.020      0.001
     25       C      1       4.000    2.010   1.990            0.021      0.000
     26       C      1       3.998    1.989   2.009           -0.020      0.002
     27       C      1       4.000    2.009   1.990            0.019      0.000
     28       C      1       3.997    1.981   2.015           -0.034      0.003
     29       C      1       3.999    2.012   1.987            0.026      0.001
     30       C      1       4.000    1.974   2.026           -0.052     -0.000
     31       C      1       3.889    1.960   1.929            0.031      0.111
     32       C      1       4.629    2.176   2.453           -0.277     -0.629
     33       C      1       4.631    2.454   2.177            0.277     -0.631
     34       C      1       3.889    1.926   1.963           -0.037      0.111
     35       C      1       4.008    2.050   1.958            0.092     -0.008
     36       C      1       3.998    1.984   2.014           -0.030      0.002
     37       C      1       4.000    2.026   1.975            0.051     -0.000
     38       C      1       3.999    1.989   2.010           -0.021      0.001
     39       C      1       4.000    2.015   1.985            0.030      0.000
     40       C      1       4.000    1.989   2.011           -0.022      0.000
     41       C      1       4.000    2.010   1.990            0.021     -0.000
     42       C      1       3.997    1.989   2.009           -0.020      0.003
     43       C      1       3.999    2.009   1.991            0.018      0.001
     44       C      1       4.000    1.975   2.025           -0.050     -0.000
     45       C      1       3.999    2.012   1.988            0.024      0.001
     46       C      1       3.997    1.975   2.023           -0.048      0.003
     47       C      1       3.896    1.960   1.936            0.024      0.104
     48       C      1       4.620    2.199   2.421           -0.222     -0.620
     49       C      1       4.631    2.454   2.178            0.276     -0.631
     50       C      1       3.889    1.926   1.963           -0.037      0.111
     51       C      1       4.008    2.050   1.959            0.091     -0.008
     52       C      1       3.998    1.984   2.014           -0.030      0.002
     53       C      1       4.000    2.026   1.975            0.051     -0.000
     54       C      1       3.999    1.988   2.011           -0.023      0.001
     55       C      1       4.000    2.015   1.985            0.030     -0.000
     56       C      1       3.999    1.990   2.009           -0.019      0.001
     57       C      1       4.000    2.010   1.990            0.019      0.000
     58       C      1       3.999    1.986   2.013           -0.028      0.001
     59       C      1       4.001    2.010   1.991            0.019     -0.001
     60       C      1       3.999    1.978   2.021           -0.043      0.001
     61       C      1       3.998    2.008   1.990            0.019      0.002
     62       C      1       3.997    1.961   2.036           -0.076      0.003
     63       C      1       3.989    2.007   1.981            0.026      0.011
     64       C      1       4.506    2.208   2.298           -0.090     -0.506
     65       C      1       4.631    2.455   2.176            0.279     -0.631
     66       C      1       3.889    1.926   1.963           -0.037      0.111
     67       C      1       4.008    2.049   1.959            0.090     -0.008
     68       C      1       3.998    1.984   2.013           -0.029      0.002
     69       C      1       4.001    2.027   1.973            0.054     -0.001
     70       C      1       3.999    1.988   2.011           -0.023      0.001
     71       C      1       4.000    2.015   1.985            0.030     -0.000
     72       C      1       3.998    1.991   2.007           -0.016      0.002
     73       C      1       4.001    2.012   1.989            0.022     -0.001
     74       C      1       3.999    1.986   2.013           -0.028      0.001
     75       C      1       4.001    2.010   1.991            0.019     -0.001
     76       C      1       3.994    1.980   2.014           -0.033      0.006
     77       C      1       4.009    2.017   1.992            0.025     -0.009
     78       C      1       3.997    1.961   2.036           -0.075      0.003
     79       C      1       3.989    2.008   1.981            0.027      0.011
     80       C      1       3.519    1.761   1.758            0.003      0.481
     81       C      1       4.632    2.454   2.177            0.277     -0.632
     82       C      1       3.889    1.926   1.963           -0.037      0.111
     83       C      1       4.008    2.050   1.958            0.091     -0.008
     84       C      1       3.998    1.984   2.014           -0.030      0.002
     85       C      1       4.000    2.026   1.975            0.051     -0.000
     86       C      1       3.999    1.989   2.010           -0.021      0.001
     87       C      1       4.000    2.015   1.985            0.030     -0.000
     88       C      1       3.999    1.990   2.009           -0.019      0.001
     89       C      1       4.000    2.010   1.990            0.020      0.000
     90       C      1       3.997    1.989   2.009           -0.020      0.003
     91       C      1       4.000    2.009   1.991            0.019      0.000
     92       C      1       3.999    1.977   2.021           -0.044      0.001
     93       C      1       3.998    2.009   1.989            0.019      0.002
     94       C      1       3.997    1.975   2.022           -0.047      0.003
     95       C      1       3.896    1.961   1.935            0.025      0.104
     96       C      1       4.505    2.204   2.301           -0.098     -0.505
     97       C      1       4.632    2.454   2.178            0.276     -0.632
     98       C      1       3.889    1.926   1.963           -0.037      0.111
     99       C      1       4.008    2.050   1.959            0.091     -0.008
    100       C      1       3.998    1.984   2.014           -0.030      0.002
    101       C      1       4.000    2.026   1.975            0.051     -0.000
    102       C      1       3.999    1.989   2.010           -0.021      0.001
    103       C      1       4.000    2.015   1.985            0.029      0.000
    104       C      1       4.000    1.989   2.011           -0.023      0.000
    105       C      1       4.000    2.010   1.990            0.021     -0.000
    106       C      1       3.998    1.989   2.009           -0.021      0.002
    107       C      1       4.000    2.010   1.990            0.019      0.000
    108       C      1       4.000    1.975   2.025           -0.050     -0.000
    109       C      1       3.999    2.012   1.987            0.024      0.001
    110       C      1       4.000    1.974   2.027           -0.053     -0.000
    111       C      1       3.889    1.960   1.929            0.031      0.111
    112       C      1       4.621    2.197   2.424           -0.227     -0.621
    113       C      1       4.631    2.454   2.177            0.277     -0.631
    114       C      1       3.889    1.926   1.963           -0.037      0.111
    115       C      1       4.008    2.049   1.959            0.090     -0.008
    116       C      1       3.998    1.984   2.014           -0.030      0.002
    117       C      1       4.000    2.026   1.974            0.052     -0.000
    118       C      1       3.999    1.988   2.011           -0.023      0.001
    119       C      1       4.000    2.015   1.985            0.029     -0.000
    120       C      1       3.999    1.990   2.010           -0.020      0.001
    121       C      1       4.000    2.011   1.990            0.021     -0.000
    122       C      1       4.000    1.986   2.014           -0.029      0.000
    123       C      1       4.001    2.011   1.990            0.021     -0.001
    124       C      1       3.996    1.982   2.015           -0.033      0.004
    125       C      1       3.999    2.013   1.987            0.026      0.001
    126       C      1       4.007    1.961   2.047           -0.086     -0.007
    127       C      1       3.888    1.962   1.927            0.035      0.112
    128       C      1       4.630    2.177   2.453           -0.276     -0.630
    129       H      2       0.459    0.228   0.231           -0.003      0.541
    130       H      2       0.458    0.231   0.227            0.003      0.542
    131       H      2       0.458    0.227   0.231           -0.003      0.542
    132       H      2       0.458    0.231   0.227            0.003      0.542
    133       H      2       0.458    0.228   0.231           -0.003      0.542
    134       H      2       0.457    0.230   0.227            0.003      0.543
    135       H      2       0.458    0.228   0.231           -0.003      0.542
    136       H      2       0.451    0.226   0.225            0.001      0.549
    137       H      2       0.458    0.228   0.231           -0.003      0.542
    138       H      2       0.458    0.227   0.231           -0.003      0.542
    139       H      2       0.451    0.226   0.225            0.001      0.549
    140       H      2       0.458    0.228   0.231           -0.003      0.542
    141       H      2       0.457    0.230   0.227            0.003      0.543
    142       H      2       0.459    0.228   0.231           -0.003      0.541
    143       H      2       0.458    0.231   0.227            0.003      0.542
    144       O      3       6.533    3.279   3.254            0.025     -0.533
    145       I      4       7.254    3.626   3.628           -0.002     -0.254
    146       I      4       7.073    3.537   3.536            0.001     -0.073

  Total Charge                                                            0.126
 !-----------------------------------------------------------------------------!

 ENERGY| Total FORCE_EVAL ( QS ) energy [hartree]           -776.994431310096502

 -------------------------------------------------------------------------------
 -                                                                             -
 -                                DBCSR STATISTICS                             -
 -                                                                             -
 -------------------------------------------------------------------------------
 COUNTER                                    TOTAL       BLAS       SMM       ACC
 flops     5 x    17 x    17               173400     100.0%      0.0%      0.0%     
 flops     5 x     8 x     8               192000     100.0%      0.0%      0.0%     
 flops     5 x    18 x    18               194400     100.0%      0.0%      0.0%     
 flops    82 x     8 x    82               430336     100.0%      0.0%      0.0%     
 flops    17 x    17 x   446               515576     100.0%      0.0%      0.0%     
 flops    18 x    18 x   446               578016     100.0%      0.0%      0.0%     
 flops    81 x     8 x    81               629856     100.0%      0.0%      0.0%     
 flops    32 x     8 x    82              1007616     100.0%      0.0%      0.0%     
 flops    82 x     8 x    64              1007616     100.0%      0.0%      0.0%     
 flops   197 x     8 x    82              1033856     100.0%      0.0%      0.0%     
 flops     5 x    32 x    17              1305600     100.0%      0.0%      0.0%     
 flops     5 x    17 x    32              1305600     100.0%      0.0%      0.0%     
 flops   249 x     8 x    82              1306752     100.0%      0.0%      0.0%     
 flops     5 x    32 x    18              1382400     100.0%      0.0%      0.0%     
 flops     5 x    18 x    32              1382400     100.0%      0.0%      0.0%     
 flops    32 x     8 x    81              1492992     100.0%      0.0%      0.0%     
 flops    81 x     8 x    64              1492992     100.0%      0.0%      0.0%     
 flops   197 x     8 x    81              1531872     100.0%      0.0%      0.0%     
 flops    17 x    17 x   444              1539792     100.0%      0.0%      0.0%     
 flops     8 x     8 x     8              1653760     100.0%      0.0%      0.0%     
 flops    82 x    32 x    82              1721344     100.0%      0.0%      0.0%     
 flops    18 x    18 x   444              1726272     100.0%      0.0%      0.0%     
 flops   249 x     8 x    81              1936224     100.0%      0.0%      0.0%     
 flops    82 x     8 x   446              2340608     100.0%      0.0%      0.0%     
 flops    81 x    32 x    81              2519424     100.0%      0.0%      0.0%     
 flops   200 x     8 x    82              3148800     100.0%      0.0%      0.0%     
 flops    81 x     8 x   446              3468096     100.0%      0.0%      0.0%     
 flops   244 x     8 x    82              3841536     100.0%      0.0%      0.0%     
 flops    32 x    17 x   446              3881984     100.0%      0.0%      0.0%     
 flops    17 x    32 x   446              3881984     100.0%      0.0%      0.0%     
 flops    13 x    17 x    17              3937336     100.0%      0.0%      0.0%     
 flops    82 x    32 x    64              4030464     100.0%      0.0%      0.0%     
 flops    32 x    32 x    82              4030464     100.0%      0.0%      0.0%     
 flops    32 x    18 x   446              4110336     100.0%      0.0%      0.0%     
 flops    18 x    32 x   446              4110336     100.0%      0.0%      0.0%     
 flops   197 x    32 x    82              4135424     100.0%      0.0%      0.0%     
 flops    13 x     8 x     8              4359680     100.0%      0.0%      0.0%     
 flops    13 x    18 x    18              4414176     100.0%      0.0%      0.0%     
 flops   200 x     8 x    81              4665600     100.0%      0.0%      0.0%     
 flops   249 x    32 x    82              5227008     100.0%      0.0%      0.0%     
 flops   244 x     8 x    81              5692032     100.0%      0.0%      0.0%     
 flops    81 x    32 x    64              5971968     100.0%      0.0%      0.0%     
 flops    32 x    32 x    81              5971968     100.0%      0.0%      0.0%     
 flops    58 x     8 x    90              6013440     100.0%      0.0%      0.0%     
 flops   197 x    32 x    81              6127488     100.0%      0.0%      0.0%     
 flops    58 x     8 x    96              6414336     100.0%      0.0%      0.0%     
 flops     8 x     8 x    32              6615040     100.0%      0.0%      0.0%     
 flops     8 x    32 x     8              6615040     100.0%      0.0%      0.0%     
 flops    32 x     8 x     8              6615040     100.0%      0.0%      0.0%     
 flops    64 x     8 x    90              6635520     100.0%      0.0%      0.0%     
 flops    82 x     8 x   444              6990336     100.0%      0.0%      0.0%     
 flops   249 x    32 x    81              7744896     100.0%      0.0%      0.0%     
 flops    57 x     8 x    89              8279136     100.0%      0.0%      0.0%     
 flops    58 x     8 x    64              8552448     100.0%      0.0%      0.0%     
 flops    57 x     8 x    96              8930304     100.0%      0.0%      0.0%     
 flops    64 x     8 x    89              9295872     100.0%      0.0%      0.0%     
 flops    82 x    32 x   446              9362432     100.0%      0.0%      0.0%     
 flops    81 x     8 x   444             10357632     100.0%      0.0%      0.0%     
 flops    32 x    17 x   444             11593728     100.0%      0.0%      0.0%     
 flops    17 x    32 x   444             11593728     100.0%      0.0%      0.0%     
 flops    57 x     8 x    64             11907072     100.0%      0.0%      0.0%     
 flops    32 x    18 x   444             12275712     100.0%      0.0%      0.0%     
 flops    18 x    32 x   444             12275712     100.0%      0.0%      0.0%     
 flops   200 x    32 x    82             12595200     100.0%      0.0%      0.0%     
 flops    81 x    32 x   446             13872384     100.0%      0.0%      0.0%     
 flops   244 x    32 x    82             15366144     100.0%      0.0%      0.0%     
 flops    64 x     8 x    96             17104896     100.0%      0.0%      0.0%     
 flops    58 x    90 x   446             18624960     100.0%      0.0%      0.0%     
 flops   200 x    32 x    81             18662400     100.0%      0.0%      0.0%     
 flops    58 x    96 x   446             19866624     100.0%      0.0%      0.0%     
 flops    32 x     8 x    90             19906560     100.0%      0.0%      0.0%     
 flops   197 x     8 x    90             20424960     100.0%      0.0%      0.0%     
 flops    64 x    90 x   446             20551680     100.0%      0.0%      0.0%     
 flops   244 x    32 x    81             22768128     100.0%      0.0%      0.0%     
 flops    64 x     8 x    64             22806528     100.0%      0.0%      0.0%     
 flops    58 x    32 x    90             24053760     100.0%      0.0%      0.0%     
 flops    58 x    32 x    96             25657344     100.0%      0.0%      0.0%     
 flops   197 x     8 x     8             25720320     100.0%      0.0%      0.0%     
 flops   249 x     8 x    90             25816320     100.0%      0.0%      0.0%     
 flops    32 x    32 x     8             26460160     100.0%      0.0%      0.0%     
 flops     8 x    32 x    32             26460160     100.0%      0.0%      0.0%     
 flops    32 x     8 x    32             26460160     100.0%      0.0%      0.0%     
 flops    58 x    64 x   446             26488832     100.0%      0.0%      0.0%     
 flops    64 x    32 x    90             26542080     100.0%      0.0%      0.0%     
 flops    57 x    89 x   446             27150696     100.0%      0.0%      0.0%     
 flops    32 x     8 x    89             27887616     100.0%      0.0%      0.0%     
 flops    82 x    32 x   444             27961344     100.0%      0.0%      0.0%     
 flops   197 x     8 x    89             28613856     100.0%      0.0%      0.0%     
 flops    57 x    96 x   446             29286144     100.0%      0.0%      0.0%     
 flops    13 x    32 x    17             29645824     100.0%      0.0%      0.0%     
 flops    13 x    17 x    32             29645824     100.0%      0.0%      0.0%     
 flops    58 x     8 x   446             29799936     100.0%      0.0%      0.0%     
 flops    64 x    89 x   446             30484992     100.0%      0.0%      0.0%     
 flops    13 x    32 x    18             31389696     100.0%      0.0%      0.0%     
 flops    13 x    18 x    32             31389696     100.0%      0.0%      0.0%     
 flops     5 x     8 x     5             31820800     100.0%      0.0%      0.0%     
 flops   249 x     8 x     8             32509440     100.0%      0.0%      0.0%     
 flops    57 x    32 x    89             33116544     100.0%      0.0%      0.0%     
 flops    58 x    32 x    64             34209792     100.0%      0.0%      0.0%     
 flops    57 x    32 x    96             35721216     100.0%      0.0%      0.0%     
 flops   249 x     8 x    89             36166752     100.0%      0.0%      0.0%     
 flops    64 x    32 x    89             37183488     100.0%      0.0%      0.0%     
 flops     8 x     8 x   446             38477312     100.0%      0.0%      0.0%     
 flops    57 x    64 x   446             39048192     100.0%      0.0%      0.0%     
 flops    81 x    32 x   444             41430528     100.0%      0.0%      0.0%     
 flops    57 x     8 x   446             41488704     100.0%      0.0%      0.0%     
 flops     5 x    32 x    32             47308800     100.0%      0.0%      0.0%     
 flops    57 x    32 x    64             47628288     100.0%      0.0%      0.0%     
 flops    32 x     8 x    96             51314688     100.0%      0.0%      0.0%     
 flops   197 x     8 x    96             52651008     100.0%      0.0%      0.0%     
 flops    64 x    96 x   446             54804480     100.0%      0.0%      0.0%     
 flops    58 x    90 x   444             55624320     100.0%      0.0%      0.0%     
 flops    58 x    96 x   444             59332608     100.0%      0.0%      0.0%     
 flops     5 x    17 x     5             60607550     100.0%      0.0%      0.0%     
 flops    64 x    90 x   444             61378560     100.0%      0.0%      0.0%     
 flops    32 x    90 x   446             61655040     100.0%      0.0%      0.0%     
 flops   200 x     8 x    90             62208000     100.0%      0.0%      0.0%     
 flops     5 x    18 x     5             63867600     100.0%      0.0%      0.0%     
 flops   249 x     8 x    96             66548736     100.0%      0.0%      0.0%     
 flops    64 x    32 x    96             68419584     100.0%      0.0%      0.0%     
 flops    64 x    64 x   446             73072640     100.0%      0.0%      0.0%     
 flops    32 x     8 x    64             74317824     100.0%      0.0%      0.0%     
 flops   244 x     8 x    90             75893760     100.0%      0.0%      0.0%     
 flops   197 x     8 x    64             76253184     100.0%      0.0%      0.0%     
 flops   200 x     8 x     8             78336000     100.0%      0.0%      0.0%     
 flops     5 x     5 x    81             78732000     100.0%      0.0%      0.0%     
 flops    58 x    64 x   444             79110144     100.0%      0.0%      0.0%     
 flops    64 x     8 x   446             79466496     100.0%      0.0%      0.0%     
 flops    32 x    32 x    90             79626240     100.0%      0.0%      0.0%     
 flops     5 x     5 x    82             79704000     100.0%      0.0%      0.0%     
 flops    57 x    89 x   444             81086832     100.0%      0.0%      0.0%     
 flops   197 x    32 x    90             81699840     100.0%      0.0%      0.0%     
 flops   200 x     8 x    89             87148800     100.0%      0.0%      0.0%     
 flops    57 x    96 x   444             87464448     100.0%      0.0%      0.0%     
 flops    58 x     8 x   444             88998912     100.0%      0.0%      0.0%     
 flops    64 x    89 x   444             91044864     100.0%      0.0%      0.0%     
 flops    64 x    32 x    64             91226112     100.0%      0.0%      0.0%     
 flops    32 x    89 x   446             91454976     100.0%      0.0%      0.0%     
 flops   244 x     8 x     8             95569920     100.0%      0.0%      0.0%     
 flops   249 x     8 x    64             96380928     100.0%      0.0%      0.0%     
 flops   197 x    32 x     8            102881280     100.0%      0.0%      0.0%     
 flops   197 x     8 x    32            102881280     100.0%      0.0%      0.0%     
 flops   249 x    32 x    90            103265280     100.0%      0.0%      0.0%     
 flops    32 x    32 x    32            105840640     100.0%      0.0%      0.0%     
 flops   244 x     8 x    89            106321536     100.0%      0.0%      0.0%     
 flops    32 x    32 x    89            111550464     100.0%      0.0%      0.0%     
 flops   197 x    32 x    89            114455424     100.0%      0.0%      0.0%     
 flops     8 x     8 x   444            114914304     100.0%      0.0%      0.0%     
 flops    57 x    64 x   444            116619264     100.0%      0.0%      0.0%     
 flops    58 x    32 x   446            119199744     100.0%      0.0%      0.0%     
 flops    57 x     8 x   444            123907968     100.0%      0.0%      0.0%     
 flops   249 x    32 x     8            130037760     100.0%      0.0%      0.0%     
 flops   249 x     8 x    32            130037760     100.0%      0.0%      0.0%     
 flops   249 x    32 x    89            144667008     100.0%      0.0%      0.0%     
 flops     8 x    32 x   446            153909248     100.0%      0.0%      0.0%     
 flops   200 x     8 x    96            160358400     100.0%      0.0%      0.0%     
 flops    64 x    96 x   444            163676160     100.0%      0.0%      0.0%     
 flops    32 x    96 x   446            164413440     100.0%      0.0%      0.0%     
 flops    57 x    32 x   446            165954816     100.0%      0.0%      0.0%     
 flops    32 x    90 x   444            184135680     100.0%      0.0%      0.0%     
 flops   244 x     8 x    96            195637248     100.0%      0.0%      0.0%     
 flops    32 x    32 x    96            205258752     100.0%      0.0%      0.0%     
 flops   197 x    32 x    96            210604032     100.0%      0.0%      0.0%     
 flops    64 x    64 x   444            218234880     100.0%      0.0%      0.0%     
 flops   200 x     8 x    64            232243200     100.0%      0.0%      0.0%     
 flops    64 x     8 x   444            237330432     100.0%      0.0%      0.0%     
 flops   200 x    32 x    90            248832000     100.0%      0.0%      0.0%     
 flops   249 x    32 x    96            266194944     100.0%      0.0%      0.0%     
 flops    32 x    89 x   444            273134592     100.0%      0.0%      0.0%     
 flops   244 x     8 x    64            283336704     100.0%      0.0%      0.0%     
 flops    32 x    32 x    64            297271296     100.0%      0.0%      0.0%     
 flops   244 x    32 x    90            303575040     100.0%      0.0%      0.0%     
 flops   197 x    32 x    64            305012736     100.0%      0.0%      0.0%     
 flops   200 x     8 x    32            313344000     100.0%      0.0%      0.0%     
 flops   200 x    32 x     8            313344000     100.0%      0.0%      0.0%     
 flops    64 x    32 x   446            317865984     100.0%      0.0%      0.0%     
 flops   200 x    32 x    89            348595200     100.0%      0.0%      0.0%     
 flops    58 x    32 x   444            355995648     100.0%      0.0%      0.0%     
 flops     5 x     5 x    64            373248000     100.0%      0.0%      0.0%     
 flops   244 x     8 x    32            382279680     100.0%      0.0%      0.0%     
 flops   244 x    32 x     8            382279680     100.0%      0.0%      0.0%     
 flops   249 x    32 x    64            385523712     100.0%      0.0%      0.0%     
 flops    32 x     8 x   446            406009856     100.0%      0.0%      0.0%     
[...]
 flops    13 x     8 x    13          24931658752     100.0%      0.0%      0.0%     
 flops   249 x    64 x   446          25672131072     100.0%      0.0%      0.0%     
 flops   200 x    64 x    81          27825638400     100.0%      0.0%      0.0%     
 flops   200 x    81 x    64          27825638400     100.0%      0.0%      0.0%     
 flops   200 x    64 x    82          28169164800     100.0%      0.0%      0.0%     
 flops   200 x    82 x    64          28169164800     100.0%      0.0%      0.0%     
 flops   244 x    64 x    81          33947278848     100.0%      0.0%      0.0%     
 flops   244 x    81 x    64          33947278848     100.0%      0.0%      0.0%     
 flops   244 x    64 x    82          34366381056     100.0%      0.0%      0.0%     
 flops   244 x    82 x    64          34366381056     100.0%      0.0%      0.0%     
 flops   200 x    81 x   444          38970590400     100.0%      0.0%      0.0%     
 flops   200 x    82 x   444          39451708800     100.0%      0.0%      0.0%     
 flops   197 x    64 x    64          43311808512     100.0%      0.0%      0.0%     
 flops    13 x    17 x    13          47486133422     100.0%      0.0%      0.0%     
 flops   244 x    81 x   444          47544120288     100.0%      0.0%      0.0%     
 flops   244 x    82 x   444          48131084736     100.0%      0.0%      0.0%     
 flops     5 x    32 x    13          49355804160     100.0%      0.0%      0.0%     
 flops    13 x    32 x     5          49355804160     100.0%      0.0%      0.0%     
 flops    32 x    81 x   444          49716633600     100.0%      0.0%      0.0%     
 flops    81 x    64 x   444          49716633600     100.0%      0.0%      0.0%     
 flops    13 x    18 x    13          50040388944     100.0%      0.0%      0.0%     
 flops    32 x    82 x   444          50246535168     100.0%      0.0%      0.0%     
 flops    82 x    64 x   444          50246535168     100.0%      0.0%      0.0%     
 flops   249 x    64 x    64          54744367104     100.0%      0.0%      0.0%     
 flops    13 x    13 x    81          54796847976     100.0%      0.0%      0.0%     
 flops    13 x    13 x    82          55473352272     100.0%      0.0%      0.0%     
 flops   197 x    64 x   444          60659407872     100.0%      0.0%      0.0%     
 flops   200 x    64 x   446          61860556800     100.0%      0.0%      0.0%     
 flops   244 x    64 x   446          75469879296     100.0%      0.0%      0.0%     
 flops    32 x    64 x    64          75860803584     100.0%      0.0%      0.0%     
 flops   249 x    64 x   444          76671028224     100.0%      0.0%      0.0%     
 flops    32 x    64 x   446          79071903744     100.0%      0.0%      0.0%     
 flops   200 x    64 x    64         131914137600     100.0%      0.0%      0.0%     
 flops   244 x    64 x    64         160935247872     100.0%      0.0%      0.0%     
 flops   200 x    64 x   444         184749465600     100.0%      0.0%      0.0%     
 flops   244 x    64 x   444         225394348032     100.0%      0.0%      0.0%     
 flops    32 x    64 x   444         236151963648     100.0%      0.0%      0.0%     
 flops    13 x    13 x    64         259777649664     100.0%      0.0%      0.0%     
 flops    13 x    32 x    13        1526497469952     100.0%      0.0%      0.0%     
 flops inhomo. stacks                           0       0.0%      0.0%      0.0%
 flops total                         4.876278E+12     100.0%      0.0%      0.0%
 flops max/rank                    394.995670E+09     100.0%      0.0%      0.0%
 matmuls inhomo. stacks                         0       0.0%      0.0%      0.0%
 matmuls total                          216654212     100.0%      0.0%      0.0%
 number of processed stacks               2673827     100.0%      0.0%      0.0%
 average stack size                                    81.0       0.0       0.0
 marketing flops                   584.487320E-15
 -------------------------------------------------------------------------------
 # multiplications                          17835
 max memory usage/rank               2.406310E+09
 # max total images/rank                        1
 # max 3D layers                                1
 # MPI messages exchanged                 1712160
 MPI messages size (bytes):
  total size                       -27.007903E+33
  min size                           0.000000E+00
  max size                           1.591328E+06
  average size                     -15.774170E+27
 MPI breakdown and total messages size (bytes):
             size <=      128              243684                        0
       128 < size <=     8192               55596                185974272
      8192 < size <=    32768              416142              13408816368
     32768 < size <=   131072              333570              17301915864
    131072 < size <=  4194304              663168             288762446640
   4194304 < size <= 16777216                   0                        0
  16777216 < size                               0                        0
 -------------------------------------------------------------------------------
 -                                                                             -
 -                      DBCSR MESSAGE PASSING PERFORMANCE                      -
 -                                                                             -
 -------------------------------------------------------------------------------
 ROUTINE             CALLS      AVE VOLUME [Bytes]
 MP_Bcast              304                     12.
 MP_Allreduce        85842                      8.
 MP_Alltoall         60573                  14008.
 MP_ISend           285284                  78189.
 MP_IRecv           285284                  75922.
 -------------------------------------------------------------------------------

 -------------------------------------------------------------------------------
 -                                                                             -
 -                                GRID STATISTICS                              -
 -                                                                             -
 -------------------------------------------------------------------------------
 LP    KERNEL             BACKEND                              COUNT     PERCENT
 4     collocate ortho    CPU                               32905800      43.38%
 4     integrate ortho    CPU                               32796114      43.24%
 3     collocate ortho    CPU                                4513800       5.95%
 3     integrate ortho    CPU                                4498754       5.93%
 2     collocate ortho    CPU                                 552600       0.73%
 2     integrate ortho    CPU                                 550758       0.73%
 0     integrate general  CPU                                  18688       0.02%
 0     collocate general  CPU                                  11680       0.02%
 -------------------------------------------------------------------------------

 -------------------------------------------------------------------------------
 -                                                                             -
 -                          OFFLOAD MEMPOOL STATISTICS                         -
 -                                                                             -
 -------------------------------------------------------------------------------
 Memory consumption                Number of allocations  Used [MiB]  Size [MiB]
 Device                                                7          21          21
 Host                                                  7          21          21
 -------------------------------------------------------------------------------

 MEMORY| Estimated peak process memory [MiB]                                 657

 -------------------------------------------------------------------------------
 -                                                                             -
 -                         MESSAGE PASSING PERFORMANCE                         -
 -                                                                             -
 -------------------------------------------------------------------------------

 ROUTINE             CALLS      AVE VOLUME [Bytes]
 MP_Group                4
 MP_Bcast            46788                   1370.
 MP_Allreduce       130171                    409.
 MP_Sync               863
 MP_Alltoall         11090               15617855.
 MP_SendRecv         18000                  89760.
 MP_ISendRecv        17940                  89760.
 MP_Wait             73347
 MP_comm_split         859
 MP_ISend            48180                 331994.
 MP_IRecv            48180                 331999.
 -------------------------------------------------------------------------------


 -------------------------------------------------------------------------------
 -                                                                             -
 -                           R E F E R E N C E S                               -
 -                                                                             -
 -------------------------------------------------------------------------------
 
 CP2K version 2026.1, the CP2K developers group (2026).
 CP2K is freely available from https://www.cp2k.org/ .
 
 T. D. Kuehne, M. Iannuzzi, M. Del Ben, V. V. Rybkin, P. Seewald, F. Stein, T. 
 Laino, R. Z. Khaliullin, O. Schuett, F. Schiffmann, D. Golze, J. Wilhelm, S. 
 Chulkov, M. H. Bani-Hashemian, V. Weber, U. Borstnik, M. Taillefumier, A. S. 
 Jakobovits, A. Lazzaro, H. Pabst, T. Mueller, R. Schade, M. Guidon, S. 
 Andermatt, N. Holmberg, G. K. Schenter, A. Hehn, A. Bussy, F. Belleflamme, G. 
 Tabacchi, A. Gloess, M. Lass, I. Bethune, C. J. Mundy, C. Plessl, M. Watkins, 
 J. VandeVondele, M. Krack, J. Hutter.
 J. Chem. Phys. 152, 194103 (2020).
 CP2K: An electronic structure and molecular dynamics software package - 
 Quickstep: Efficient and accurate electronic structure calculations.
 https://doi.org/10.1063/5.0007045

 L. Goerigk, A. Hansen, C. Bauer, S. Ehrlich, A. Najibi, S. Grimme.
 Phys. Chem. Chem. Phys. 19, 32184-32215 (2017).
 A look at the density functional theory zoo with the advanced GMTKN55 database 
 for general main group thermochemistry, kinetics and noncovalent interactions.
 https://doi.org/10.1039/C7CP04913G

 O. Schuett, P. Messmer, J. Hutter, J. VandeVondele.
 Electronic Structure Calculations on Graphics Processing Units, 173-190 (2016).
 GPU-Accelerated Sparse Matrix-Matrix Multiplication for Linear Scaling Density 
 Functional Theory.
 https://doi.org/10.1002/9781118670712.ch8

 A. Heinecke, G. Henry, M. Hutchinson, H. Pabst.
 Proceedings of Intl. Supercomputing Conference, 981-991 (2016).
 LIBXSMM: Accelerating Small Matrix Multiplications by Runtime Code Generation.
 https://doi.org/10.1109/SC.2016.83

 J. Hutter, M. Iannuzzi, F. Schiffmann, J. VandeVondele.
 WIREs Comput Mol Sci. 4, 15-25 (2014).
 CP2K: atomistic simulations of condensed matter systems.
 https://doi.org/10.1002/wcms.1159

 U. Borstnik, J. VandeVondele, V. Weber, J. Hutter.
 Parallel Comput. 40, 47-58 (2014).
 Sparse matrix multiplication: The distributed block-compressed sparse row 
 library.
 https://doi.org/10.1016/j.parco.2014.03.012

 S. Grimme, S. Ehrlich, L. Goerigk.
 J. Comput. Chem. 32, 1456 (2011).
 Effect of the damping function in dispersion corrected density functional 
 theory.
 https://doi.org/10.1002/jcc.21759

 S. Grimme, J. Antony, S. Ehrlich, H. Krieg.
 J. Chem. Phys. 132, 154104 (2010).
 A consistent and accurate ab initio parametrization of density functional 
 dispersion correction (DFT-D) for the 94 elements H-Pu.
 https://doi.org/10.1063/1.3382344

 J. VandeVondele, J. Hutter.
 J. Chem. Phys. 127, 114105 (2007).
 Gaussian basis sets for accurate calculations on molecular systems in gas and 
 condensed phases.
 https://doi.org/10.1063/1.2770708

 J. VandeVondele, M. Krack, F. Mohamed, M. Parrinello, T. Chassaing, J. Hutter.
 Comput. Phys. Commun. 167, 103-128 (2005).
 QUICKSTEP: Fast and accurate density functional calculations using a mixed 
 Gaussian and plane waves approach.
 https://doi.org/10.1016/j.cpc.2004.12.014

 M. Krack.
 Theor. Chem. Acc. 114, 145-152 (2005).
 Pseudopotentials for H to Kr optimized for gradient-corrected 
 exchange-correlation functionals.
 https://doi.org/10.1007/s00214-005-0655-y

 M. Frigo, S. G. Johnson.
 Proc. IEEE 93, 216-231 (2005).
 The design and implementation of FFTW3.
 https://doi.org/10.1109/JPROC.2004.840301

 J. VandeVondele, J. Hutter.
 J. Chem. Phys. 118, 4365-4369 (2003).
 An efficient orbital transformation method for electronic structure 
 calculations.
 https://doi.org/10.1063/1.1543154

 C. Hartwigsen, S. Goedecker, J. Hutter.
 Phys. Rev. B 58, 3641-3662 (1998).
 Relativistic separable dual-space Gaussian pseudopotentials from H to Rn.
 https://doi.org/10.1103/PhysRevB.58.3641

 G. Lippert, J. Hutter, M. Parrinello.
 Mol. Phys. 92, 477-487 (1997).
 A hybrid Gaussian and plane wave density functional scheme.
 https://doi.org/10.1080/002689797170220

 S. Goedecker, M. Teter, J. Hutter.
 Phys. Rev. B 54, 1703-1710 (1996).
 Separable dual-space Gaussian pseudopotentials.
 https://doi.org/10.1103/PhysRevB.54.1703

 J. P. Perdew, K. Burke, M. Ernzerhof.
 Phys. Rev. Lett. 77, 3865-3868 (1996).
 Generalized gradient approximation made simple.
 https://doi.org/10.1103/PhysRevLett.77.3865


 -------------------------------------------------------------------------------
 -                                                                             -
 -                                T I M I N G                                  -
 -                                                                             -
 -------------------------------------------------------------------------------
 SUBROUTINE                       CALLS  ASD         SELF TIME        TOTAL TIME
                                MAXIMUM       AVERAGE  MAXIMUM  AVERAGE  MAXIMUM
 CP2K                                 1  1.0    0.022    0.028  301.791  301.791
 qs_energies                          1  2.0    0.000    0.000  301.480  301.480
 scf_env_do_scf                       1  3.0    0.000    0.001  290.923  290.923
 scf_env_do_scf_inner_loop          299  4.0    0.006    0.022  288.828  288.832
 qs_ks_update_qs_env                301  5.0    0.002    0.002  175.855  176.006
 rebuild_ks_matrix                  299  6.0    0.001    0.001  175.668  175.818
 qs_ks_build_kohn_sham_matrix       299  7.0    0.047    0.052  175.667  175.817
 fft_wrap_pw1pw2                   9878 10.4    0.232    0.268  121.191  131.435
 fft_wrap_pw1pw2_80                6284 11.9    4.948    6.276  114.692  124.156
 qs_vxc_create                      299  8.0    0.009    0.011  103.632  104.438
 xc_vxc_pw_create                   299  9.0    2.141    2.765  103.623  104.431
 fft3d_ps                          9878 12.4   49.672   53.391   86.338   95.981
 xc_pw_derive                      3588 11.0    0.058    0.074   75.315   80.299
 qs_rho_update_rho_low              300  5.0    0.002    0.002   68.585   68.608
 calculate_rho_elec                 600  6.0    0.818    0.872   68.584   68.606
 density_rs2pw                      600  7.0    0.024    0.028   50.392   58.065
 sum_up_and_integrate               299  8.0    0.010    0.012   55.706   55.755
 integrate_v_rspace                 598  9.0    0.022    0.026   55.278   55.345
 xc_pw_divergence                   598 10.0    0.022    0.029   50.309   54.416
 xc_rho_set_and_dset_create         299 10.0    2.282    3.722   49.238   51.820
 qs_scf_new_mos                     299  5.0    0.002    0.002   44.731   44.810
 qs_scf_loop_do_ot                  299  6.0    0.002    0.002   44.729   44.808
 ot_scf_mini                        299  7.0    0.006    0.007   42.518   42.620
 dbcsr_multiply_generic           17835 10.0    0.402    0.442   39.837   40.561
 mp_alltoall_z22v                  9878 14.4   21.835   37.778   21.835   37.778
 grid_collocate_task_list           600  7.0   15.850   34.594   15.850   34.594
 transfer_rs2pw                    2405  8.0    0.022    0.025   24.934   33.450
 mp_waitany                       48180 11.5   23.471   33.321   23.471   33.321
 grid_integrate_task_list           598 10.0   12.294   31.695   12.294   31.695
 transfer_rs2pw_80                  605  9.0    1.199    1.349   21.336   29.720
 mp_alltoall_d11v                 12745 12.6   20.373   28.361   20.373   28.361
 rs_gather_matrices                 598 10.0    0.222    0.316   19.765   27.853
 yz_to_x                           4793 12.9    7.090    8.246   18.074   27.079
 multiply_cannon                  17835 11.0    0.756    0.808   21.889   23.423
 potential_pw2rs                    598 10.0    0.115    0.161   23.194   23.394
 x_to_yz                           5085 13.8    7.528    8.770   18.378   22.895
 ot_mini                            645  8.0    0.003    0.003   21.238   21.363
 pw_gather_p                       4793 11.9   15.464   21.171   15.464   21.171
 qs_ot_get_p                        958  8.0    0.005    0.005   19.682   20.079
 multiply_cannon_loop             17835 12.0    0.270    0.314   16.881   18.695
 qs_ot_p2m_diag                     823  9.0    0.110    0.173   15.747   15.838
 cp_fm_syevd                        859 10.9    0.003    0.004   15.174   15.199
 qs_ot_get_derivative               772  9.0    0.005    0.006   15.068   15.124
 mp_waitall_1                    881247 14.2   10.190   14.885   10.190   14.885
 cp_fm_redistribute_end             859 11.9    7.490   14.806    7.509   14.826
 cp_fm_syevd_base                   859 11.9    7.303   14.612    7.303   14.612
 cp_dbcsr_syevd                     823 10.0    0.036    0.037   14.282   14.294
 multiply_cannon_multrec          71340 13.0    9.047   13.677    9.096   13.734
 make_m2s                         35670 11.0    0.217    0.246   12.289   13.132
 pw_scatter_p                      5085 12.8    9.362   11.799    9.362   11.799
 xc_functional_eval                 299 11.0    0.006    0.009    9.177   10.744
 pbe_lsd_eval                       299 12.0    9.171   10.738    9.171   10.738
 make_images                      35670 12.0    1.965    3.912    9.716   10.396
 qs_ot_get_derivative_diag          693 10.0    0.015    0.018   10.140   10.210
 scf_post_calculation_gpw             1  3.0    0.000    0.000   10.028   10.028
 write_available_results              1  4.0    0.000    0.000   10.028   10.028
 write_mo_dependent_results           1  5.0    0.003    0.005    9.885    9.885
 calculate_projected_dos              2  6.0    0.017    0.026    9.785    9.794
 transfer_pw2rs                    2400 11.0    0.020    0.025    9.254    9.286
 ot_eigensolver                       2  7.0    0.004    0.004    8.879    8.880
 pw_derive                         4485 11.6    7.426    8.867    7.426    8.867
 pw_copy                           7177 10.8    5.740    6.491    5.740    6.491
 fft_wrap_pw1pw2_30                1198 10.5    0.127    0.204    4.690    6.424
 multiply_cannon_metrocomm3       71340 13.0    0.083    0.087    3.522    6.138
 -------------------------------------------------------------------------------

 The number of warnings for this run is : 0
 
 -------------------------------------------------------------------------------
  **** **** ******  **  PROGRAM ENDED AT                 2026-06-19 19:54:09.354
 ***** ** ***  *** **   PROGRAM RAN ON             ip-172-31-89-158.ec2.internal
 **    ****   ******    PROGRAM RAN BY                                 <unknown>
 ***** **    ** ** **   PROGRAM PROCESS ID                                 10409
  **** **  *******  **  PROGRAM STOPPED IN /opt/cp2k_sanity/cp2k_adsorption_hete
                                           rogeneity
