 DBCSR| CPU Multiplication driver                                           BLAS (U)
 DBCSR| Multrec recursion limit                                              512 (U)
 DBCSR| Multiplication stack size                                           1000 (D)
 DBCSR| Maximum elements for images                                    UNLIMITED (U)
 DBCSR| Multiplicative factor virtual images                                   1 (U)
 DBCSR| Use multiplication densification                                       T (D)
 DBCSR| Multiplication size stacks                                             3 (U)
 DBCSR| Use memory pool for CPU allocation                                     F (U)
 DBCSR| Number of 3D layers                                               SINGLE (U)
 DBCSR| Use MPI memory allocation                                              F (U)
 DBCSR| Use RMA algorithm                                                      F (U)
 DBCSR| Use Communication thread                                               T (U)
 DBCSR| Communication thread load                                             83 (D)
 DBCSR| MPI: My process id                                                     0
 DBCSR| MPI: Number of processes                                              16
 DBCSR| OMP: Current number of threads                                         2
 DBCSR| OMP: Max number of threads                                             2
 DBCSR| Split modifier for TAS multiplication algorithm                  1.0E+00 (U)


  **** **** ******  **  PROGRAM STARTED AT               2026-06-19 19:47:36.993
 ***** ** ***  *** **   PROGRAM STARTED ON         ip-172-31-89-158.ec2.internal
 **    ****   ******    PROGRAM STARTED BY                             <unknown>
 ***** **    ** ** **   PROGRAM PROCESS ID                                 10254
  **** **  *******  **  PROGRAM STARTED IN /opt/cp2k_sanity/cp2k_adsorption_hete
                                           rogeneity

 CP2K| version string:                                       CP2K version 2026.1
 CP2K| source code revision number:                                      aceff1c
 CP2K| cp2kflags: omp libint fftw3 libxc parallel scalapack mpi_f08 cosma xsmm p
 CP2K|            lumed2 spglib sirius libtorch hdf5 trexio
 CP2K| is freely available from                            https://www.cp2k.org/
 CP2K| Program compiled at                                   2026-06-16 16:35:48
 CP2K| Program compiled on                                                      
 CP2K| Program compiled for                                               x86_64
 CP2K| Data directory path                  /opt/cp2k_sanity/env/share/cp2k/data
 CP2K| Input file name        cp2k_inputs/sanity/sp/carbonyl_edge_periodic_ribbo

 GLOBAL| Force Environment number                                              1
 GLOBAL| Basis set file name            /opt/cp2k_sanity/env/share/cp2k/data/BAS
 GLOBAL| Potential file name            /opt/cp2k_sanity/env/share/cp2k/data/GTH
 GLOBAL| MM Potential file name                                     MM_POTENTIAL
 GLOBAL| Coordinate file name                                      __STD_INPUT__
 GLOBAL| Method name                                                        CP2K
 GLOBAL| Project name                   carbonyl_edge_periodic_ribbon_sanity_bar
 GLOBAL| Run type                                                         ENERGY
 GLOBAL| FFT library                                                       FFTW3
 GLOBAL| Diagonalization library                                       ScaLAPACK
 GLOBAL| Cholesky decomposition library                                ScaLAPACK
 GLOBAL| DGEMM library                                                      BLAS
 GLOBAL| Orthonormality check for eigenvectors                          DISABLED
 GLOBAL| Matrix multiplication library                                     COSMA
 GLOBAL| All-to-all communication in single precision                          F
 GLOBAL| FFTs using library dependent lengths                                  F
 GLOBAL| Grid backend                                                       AUTO
 GLOBAL| Global print level                                                  LOW
 GLOBAL| MPI I/O enabled                                                       T
 GLOBAL| Total number of message passing processes                            16
 GLOBAL| Number of distributed systems (nodes)                                 1
 GLOBAL| Number of threads for this process                                    2
 GLOBAL| This output is from process                                           0
 GLOBAL| OpenMP stack size per thread (OMP_STACKSIZE)                    default
 GLOBAL| CPU model name                                            AMD EPYC 9R14
 GLOBAL| CPUID                                                              1003
 GLOBAL| Compiled for CPUID                                                 1002

 *** HINT in environment.F:960 :: The compiler target flags (x86_avx2)     ***
 *** used to build this binary cannot exploit all extensions of this CPU   ***
 *** model (x86_avx512). Consider compiler target flags as part of FCFLAGS ***
 *** and CFLAGS (ARCH file).                                               ***


 MEMORY| system memory details [Kb]
 MEMORY|                        rank 0           min           max       average
 MEMORY| MemTotal             64430560      64430560      64430560      64430560
 MEMORY| MemFree              56398860      56398860      56398860      56398860
 MEMORY| Buffers                  3172          3172          3172          3172
 MEMORY| Cached                4550980       4550980       4550980       4550980
 MEMORY| Slab                   307296        307296        307296        307296
 MEMORY| SReclaimable           120596        120596        120596        120596
 MEMORY| MemLikelyFree        61073608      61073608      61073608      61073608


 GENERATE|  Preliminary Number of Bonds generated:                             0
 GENERATE|  Achieved consistency in connectivity generation.

 *******************************************************************************
 *******************************************************************************
 **                                                                           **
 **     #####                         ##              ##                      **
 **    ##   ##            ##          ##              ##                      **
 **   ##     ##                       ##            ######                    **
 **   ##     ##  ##   ##  ##   #####  ##  ##   ####   ##    #####    #####    **
 **   ##     ##  ##   ##  ##  ##      ## ##   ##      ##   ##   ##  ##   ##   **
 **   ##  ## ##  ##   ##  ##  ##      ####     ###    ##   ######   ######    **
 **    ##  ###   ##   ##  ##  ##      ## ##      ##   ##   ##       ##        **
 **     #######   #####   ##   #####  ##  ##  ####    ##    #####   ##        **
 **           ##                                                    ##        **
 **                                                                           **
 **                                                ... make the atoms dance   **
 **                                                                           **
 **            Copyright (C) by CP2K developers group (2000-2026)             **
 **                      J. Chem. Phys. 152, 194103 (2020)                    **
 **                                                                           **
 *******************************************************************************


 TOTAL NUMBERS AND MAXIMUM NUMBERS

  Total number of            - Atomic kinds:                                   3
                             - Atoms:                                        144
                             - Shell sets:                                   144
                             - Shells:                                       690
                             - Primitive Cartesian functions:                720
                             - Cartesian basis functions:                   1881
                             - Spherical basis functions:                   1752

  Maximum angular momentum of- Orbital basis functions:                        2
                             - Local part of the GTH pseudopotential:          2
                             - Non-local part of the GTH pseudopotential:      0


 SCF PARAMETERS         Density guess:                                    ATOMIC
                        --------------------------------------------------------
                        max_scf:                                             260
                        max_scf_history:                                       0
                        max_diis:                                              4
                        --------------------------------------------------------
                        eps_scf:                                        1.00E-05
                        eps_scf_history:                                0.00E+00
                        eps_diis:                                       0.00E+00
                        eps_eigval:                                     1.00E-05
                        --------------------------------------------------------
                        level_shift [a.u.]:                             0.000000
                        --------------------------------------------------------
                        Outer loop SCF in use 
                        No variables optimised in outer loop
                        eps_scf                                         1.00E-05
                        max_scf                                               10
                        No outer loop optimization
                        step_size                                       5.00E-01

 Extrapolation method: initial_guess

 Spin 1

 Number of electrons:                                                        267
 Number of occupied orbitals:                                                267
 Number of molecular orbitals:                                               267

 Spin 2

 Number of electrons:                                                        266
 Number of occupied orbitals:                                                266
 Number of molecular orbitals:                                               266

 Number of orbital functions:                                               1752
 Number of independent orbital functions:                                   1752


 SCF WAVEFUNCTION OPTIMIZATION

  ----------------------------------- OT ---------------------------------------
  Minimizer      : DIIS                : direct inversion
                                         in the iterative subspace
                                         using   7 DIIS vectors
                                         safer DIIS on
  Preconditioner : FULL_SINGLE_INVERSE : inversion of 
                                         H + eS - 2*(Sc)(c^T*H*c+const)(Sc)^T
  Precond_solver : DEFAULT
  stepsize       :    0.08000000                  energy_gap     :    0.08000000
  eps_taylor     :   0.10000E-15                  max_taylor     :             4
  ----------------------------------- OT ---------------------------------------

  Step     Update method      Time    Convergence         Total energy    Change
  ------------------------------------------------------------------------------
     1 OT DIIS     0.80E-01    1.3     0.01429475      -702.9766635771 -7.03E+02
     2 OT DIIS     0.80E-01    1.1     0.01272481      -714.3979297920 -1.14E+01
     3 OT DIIS     0.80E-01    1.1     0.01072665      -720.5466511658 -6.15E+00
     4 OT DIIS     0.80E-01    1.1     0.00881219      -731.5252095721 -1.10E+01
     5 OT DIIS     0.80E-01    1.1     0.00547370      -743.7183059983 -1.22E+01
     6 OT DIIS     0.80E-01    1.1     0.00438853      -746.4550449102 -2.74E+00
     7 OT DIIS     0.80E-01    1.1     0.00261329      -750.2930651830 -3.84E+00
     8 OT DIIS     0.80E-01    1.1     0.00215098      -751.0650773102 -7.72E-01
     9 OT DIIS     0.80E-01    1.1     0.00147420      -752.2096126429 -1.14E+00
    10 OT DIIS     0.80E-01    1.1     0.00119237      -752.5917465581 -3.82E-01
    11 OT DIIS     0.80E-01    1.1     0.00097496      -752.9523980970 -3.61E-01
    12 OT DIIS     0.80E-01    1.1     0.00077389      -753.2108822557 -2.58E-01
    13 OT DIIS     0.80E-01    1.1     0.00065953      -753.3936525857 -1.83E-01
    14 OT DIIS     0.80E-01    1.1     0.00050973      -753.5558649538 -1.62E-01
    15 OT DIIS     0.80E-01    1.1     0.00046763      -753.6218483182 -6.60E-02
    16 OT DIIS     0.80E-01    1.1     0.00039038      -753.6938622315 -7.20E-02
    17 OT DIIS     0.80E-01    1.1     0.00036045      -753.7429709659 -4.91E-02
    18 OT DIIS     0.80E-01    1.1     0.00030093      -753.7913076974 -4.83E-02
    19 OT DIIS     0.80E-01    1.1     0.00027112      -753.8242028742 -3.29E-02
    20 OT DIIS     0.80E-01    1.1     0.00023349      -753.8626778347 -3.85E-02
    21 OT DIIS     0.80E-01    1.1     0.00020920      -753.8940587653 -3.14E-02
    22 OT DIIS     0.80E-01    1.1     0.00018938      -753.9085175434 -1.45E-02
    23 OT DIIS     0.80E-01    1.1     0.00018542      -753.9274928064 -1.90E-02
    24 OT DIIS     0.80E-01    1.1     0.00017065      -753.9340269088 -6.53E-03
    25 OT DIIS     0.80E-01    1.1     0.00016038      -753.9408297591 -6.80E-03
    26 OT DIIS     0.80E-01    1.1     0.00013038      -753.9673895937 -2.66E-02
    27 OT DIIS     0.80E-01    1.1     0.00012474      -753.9706966943 -3.31E-03
    28 OT DIIS     0.80E-01    1.1     0.00010693      -753.9834493107 -1.28E-02
    29 OT DIIS     0.80E-01    1.1     0.00009413      -753.9940798512 -1.06E-02
    30 OT DIIS     0.80E-01    1.1     0.00008642      -753.9985088702 -4.43E-03
    31 OT DIIS     0.80E-01    1.1     0.00007701      -754.0058641873 -7.36E-03
    32 OT DIIS     0.80E-01    1.1     0.00007324      -754.0076253961 -1.76E-03
    33 OT DIIS     0.80E-01    1.1     0.00007018      -754.0119581956 -4.33E-03
    34 OT DIIS     0.80E-01    1.1     0.00006540      -754.0128665261 -9.08E-04
    35 OT DIIS     0.80E-01    1.1     0.00005919      -754.0161086310 -3.24E-03
    36 OT DIIS     0.80E-01    1.1     0.00005297      -754.0202053794 -4.10E-03
    37 OT DIIS     0.80E-01    1.1     0.00005342      -754.0213451375 -1.14E-03
    38 OT DIIS     0.80E-01    1.1     0.00004513      -754.0248231611 -3.48E-03
    39 OT DIIS     0.80E-01    1.1     0.00004563      -754.0255531870 -7.30E-04
    40 OT DIIS     0.80E-01    1.1     0.00003931      -754.0278890933 -2.34E-03
    41 OT DIIS     0.80E-01    1.1     0.00003707      -754.0293142670 -1.43E-03
    42 OT DIIS     0.80E-01    1.1     0.00003329      -754.0310062889 -1.69E-03
    43 OT DIIS     0.80E-01    1.1     0.00003242      -754.0319843944 -9.78E-04
    44 OT DIIS     0.80E-01    1.1     0.00003010      -754.0326343592 -6.50E-04
    45 OT DIIS     0.80E-01    1.1     0.00003054      -754.0335427891 -9.08E-04
    46 OT DIIS     0.80E-01    1.1     0.00002677      -754.0342205277 -6.78E-04
    47 OT DIIS     0.80E-01    1.2     0.00002504      -754.0352895150 -1.07E-03
    48 OT DIIS     0.80E-01    1.1     0.00002426      -754.0357032367 -4.14E-04
    49 OT DIIS     0.80E-01    1.2     0.00002299      -754.0365109445 -8.08E-04
    50 OT DIIS     0.80E-01    1.2     0.00002229      -754.0368469963 -3.36E-04
    51 OT DIIS     0.80E-01    1.2     0.00002128      -754.0375952659 -7.48E-04
    52 OT DIIS     0.80E-01    1.1     0.00002058      -754.0378741516 -2.79E-04
    53 OT DIIS     0.80E-01    1.1     0.00001985      -754.0384093030 -5.35E-04
    54 OT DIIS     0.80E-01    1.2     0.00001930      -754.0387134178 -3.04E-04
    55 OT DIIS     0.80E-01    1.2     0.00001782      -754.0396529565 -9.40E-04
    56 OT DIIS     0.80E-01    1.2     0.00001737      -754.0401416143 -4.89E-04
    57 OT DIIS     0.80E-01    1.1     0.00001773      -754.0402752032 -1.34E-04
    58 OT DIIS     0.80E-01    1.1     0.00001589      -754.0408515425 -5.76E-04
    59 OT DIIS     0.80E-01    1.1     0.00001654      -754.0411133674 -2.62E-04
    60 OT DIIS     0.80E-01    1.1     0.00001458      -754.0415780884 -4.65E-04
    61 OT DIIS     0.80E-01    1.1     0.00001475      -754.0417179247 -1.40E-04
    62 OT DIIS     0.80E-01    1.1     0.00001399      -754.0418700746 -1.52E-04
    63 OT DIIS     0.80E-01    1.1     0.00001446      -754.0422398784 -3.70E-04
    64 OT DIIS     0.80E-01    1.1     0.00001281      -754.0424274664 -1.88E-04
    65 OT DIIS     0.80E-01    1.1     0.00001308      -754.0425163470 -8.89E-05
    66 OT DIIS     0.80E-01    1.1     0.00001255      -754.0425863806 -7.00E-05
    67 OT DIIS     0.80E-01    1.1     0.00001194      -754.0428848999 -2.99E-04
    68 OT DIIS     0.80E-01    1.1     0.00001129      -754.0432120531 -3.27E-04
    69 OT DIIS     0.80E-01    1.1     0.00001093      -754.0433536201 -1.42E-04
    70 OT DIIS     0.80E-01    1.1     0.00001185      -754.0436559643 -3.02E-04
    71 OT DIIS     0.80E-01    1.1     0.00001076      -754.0437546026 -9.86E-05
    72 OT DIIS     0.80E-01    1.1     0.00000997      -754.0439139164 -1.59E-04

  *** SCF run converged in    72 steps ***


  Electronic density on regular grids:       -532.9999014594        0.0000985406
  Core density on regular grids:              533.0001996305        0.0001996305
  Total charge density on r-space grids:        0.0002981712
  Total charge density g-space grids:           0.0002981712

  Overlap energy of the core charge distribution:               0.00002768478463
  Self energy of the core charge distribution:              -1769.56433108798660
  Core Hamiltonian energy:                                    555.15855514772090
  Hartree energy:                                             693.54178006208463
  Exchange-correlation energy:                               -232.78326354224640
  Dispersion energy:                                           -0.39668218071631

  Total energy:                                              -754.04391391635943

  outer SCF iter =    1 RMS gradient =   0.10E-04 energy =       -754.0439139164
  outer SCF loop converged in   1 iterations or   72 steps


   Calculate PDOS at iteration step                                  0
 OT| Eigensolver reached convergence in 125 iterations

   Compute           40    additional unoccupied KS orbitals

              ---- PDOS: start iteration on the KS states --- 

   Calculate PDOS at iteration step                                  0
 OT| Eigensolver reached convergence in 131 iterations

   Compute           40    additional unoccupied KS orbitals

              ---- PDOS: start iteration on the KS states --- 

  Integrated spin density:                                          1.0000004873
  Integrated absolute spin density:                                 2.2792842855
  Ideal and single determinant S**2 :                    0.750000       0.909680

 !-----------------------------------------------------------------------------!
                     Mulliken Population Analysis

 #  Atom  Element  Kind  Atomic population (alpha,beta) Net charge  Spin moment
       1     C        1         2.132376     1.904813    -0.037189     0.227563
       2     C        1         1.983373     2.025940    -0.009313    -0.042568
       3     C        1         2.011412     1.993958    -0.005370     0.017454
       4     C        1         1.993921     2.007171    -0.001092    -0.013250
       5     C        1         1.990796     2.009891    -0.000687    -0.019095
       6     C        1         1.998624     2.001788    -0.000412    -0.003165
       7     C        1         1.999708     2.000799    -0.000507    -0.001090
       8     C        1         2.000464     1.999903    -0.000367     0.000562
       9     C        1         1.996167     2.003864    -0.000031    -0.007697
      10     C        1         2.000782     1.999804    -0.000586     0.000978
      11     C        1         1.997954     2.002277    -0.000231    -0.004324
      12     C        1         2.003562     1.996915    -0.000478     0.006647
      13     C        1         1.995626     2.005399    -0.001026    -0.009773
      14     C        1         2.005323     1.998605    -0.003927     0.006718
      15     C        1         1.990734     2.018556    -0.009290    -0.027823
      16     C        1         2.084729     1.958245    -0.042974     0.126484
      17     C        1         2.090997     1.951027    -0.042024     0.139970
      18     C        1         1.994234     2.015173    -0.009406    -0.020939
      19     C        1         1.995205     2.007894    -0.003099    -0.012689
      20     C        1         1.995946     2.004880    -0.000826    -0.008934
      21     C        1         1.999857     2.001513    -0.001371    -0.001656
      22     C        1         1.999850     2.000819    -0.000670    -0.000969
      23     C        1         1.995959     2.004263    -0.000222    -0.008305
      24     C        1         2.000371     2.000426    -0.000797    -0.000055
      25     C        1         1.998227     2.002399    -0.000626    -0.004172
      26     C        1         2.002477     1.997948    -0.000425     0.004528
      27     C        1         1.997369     2.002920    -0.000288    -0.005551
      28     C        1         2.001127     2.000215    -0.001343     0.000912
      29     C        1         1.995119     2.005232    -0.000351    -0.010112
      30     C        1         2.010438     1.992174    -0.002612     0.018265
      31     C        1         1.993393     2.015130    -0.008523    -0.021737
      32     C        1         2.076761     1.968080    -0.044841     0.108682
      33     C        1         2.049947     1.996815    -0.046762     0.053132
      34     C        1         2.002359     2.007335    -0.009694    -0.004976
      35     C        1         1.993437     2.009704    -0.003141    -0.016266
      36     C        1         1.999429     2.001318    -0.000747    -0.001888
      37     C        1         2.007917     1.993709    -0.001626     0.014207
      38     C        1         1.999288     2.001360    -0.000648    -0.002072
      39     C        1         1.995467     2.004461     0.000072    -0.008994
      40     C        1         1.999982     2.000484    -0.000466    -0.000502
      41     C        1         1.999413     2.001434    -0.000847    -0.002021
      42     C        1         2.002033     1.998733    -0.000766     0.003300
      43     C        1         1.997119     2.003316    -0.000435    -0.006197
      44     C        1         2.000320     2.001186    -0.001506    -0.000865
      45     C        1         1.996100     2.004078    -0.000177    -0.007978
      46     C        1         2.008891     1.993178    -0.002069     0.015713
      47     C        1         1.995855     2.010442    -0.006296    -0.014587
      48     C        1         2.046199     1.989325    -0.035523     0.056874
      49     C        1         2.016642     2.030082    -0.046724    -0.013440
      50     C        1         2.003433     2.006086    -0.009520    -0.002653
      51     C        1         2.005574     1.998561    -0.004135     0.007013
      52     C        1         2.000381     2.000374    -0.000755     0.000007
      53     C        1         2.004127     1.997148    -0.001275     0.006980
      54     C        1         1.999945     2.000984    -0.000930    -0.001039
      55     C        1         2.000182     2.000566    -0.000749    -0.000384
      56     C        1         2.000909     1.999304    -0.000213     0.001604
      57     C        1         1.998144     2.001921    -0.000065    -0.003776
      58     C        1         2.000339     1.999903    -0.000242     0.000436
      59     C        1         1.998152     2.002882    -0.001034    -0.004729
      60     C        1         2.004069     1.996855    -0.000924     0.007213
      61     C        1         1.997871     2.003042    -0.000914    -0.005171
      62     C        1         2.002545     2.000607    -0.003152     0.001938
      63     C        1         2.009407     2.019965    -0.029373    -0.010558
      64     C        1         2.012684     1.992715    -0.005400     0.019969
      65     C        1         2.025450     2.018090    -0.043540     0.007360
      66     C        1         1.994336     2.014816    -0.009152    -0.020480
      67     C        1         2.007734     1.996957    -0.004691     0.010777
      68     C        1         1.998882     2.001699    -0.000581    -0.002817
      69     C        1         1.996465     2.003994    -0.000459    -0.007530
      70     C        1         1.998794     2.001519    -0.000313    -0.002726
      71     C        1         2.000510     2.000058    -0.000568     0.000452
      72     C        1         2.001451     1.999065    -0.000516     0.002386
      73     C        1         1.995143     2.005355    -0.000499    -0.010212
      74     C        1         1.999569     2.000541    -0.000110    -0.000972
      75     C        1         1.998988     2.002058    -0.001045    -0.003070
      76     C        1         2.007370     1.993478    -0.000848     0.013893
      77     C        1         1.996968     2.007902    -0.004870    -0.010935
      78     C        1         1.999475     2.001645    -0.001119    -0.002170
      79     C        1         2.013177     2.016355    -0.029531    -0.003178
      80     C        1         1.936628     1.936357     0.127016     0.000271
      81     C        1         2.097044     1.944758    -0.041802     0.152285
      82     C        1         1.980684     2.029069    -0.009753    -0.048386
      83     C        1         1.998972     2.004769    -0.003741    -0.005798
      84     C        1         1.995200     2.005641    -0.000841    -0.010442
      85     C        1         2.000937     2.000281    -0.001218     0.000656
      86     C        1         1.998784     2.001583    -0.000368    -0.002799
      87     C        1         1.997041     2.003117    -0.000158    -0.006076
      88     C        1         1.999285     2.001421    -0.000706    -0.002136
      89     C        1         1.998895     2.001218    -0.000113    -0.002323
      90     C        1         2.001422     1.998942    -0.000364     0.002480
      91     C        1         1.997982     2.002200    -0.000183    -0.004218
      92     C        1         2.003648     1.998780    -0.002428     0.004868
      93     C        1         1.999100     2.001765    -0.000865    -0.002666
      94     C        1         2.006623     1.994076    -0.000699     0.012547
      95     C        1         2.000714     2.005556    -0.006270    -0.004842
      96     C        1         2.001694     2.006468    -0.008162    -0.004774
      97     C        1         2.162111     1.877200    -0.039311     0.284912
      98     C        1         1.970618     2.039001    -0.009618    -0.068383
      99     C        1         2.002469     2.001813    -0.004282     0.000656
     100     C        1         1.993605     2.007579    -0.001184    -0.013974
     101     C        1         2.003508     1.998830    -0.002338     0.004678
     102     C        1         1.997300     2.003355    -0.000655    -0.006055
     103     C        1         1.997584     2.002539    -0.000122    -0.004955
     104     C        1         1.998068     2.002228    -0.000296    -0.004159
     105     C        1         2.000923     1.999413    -0.000336     0.001509
     106     C        1         2.000517     2.000321    -0.000838     0.000196
     107     C        1         1.998249     2.002426    -0.000674    -0.004177
     108     C        1         1.999221     2.002363    -0.001584    -0.003142
     109     C        1         1.998056     2.001886     0.000058    -0.003830
     110     C        1         2.008237     1.995887    -0.004124     0.012350
     111     C        1         1.996780     2.011105    -0.007885    -0.014325
     112     C        1         2.027172     2.006717    -0.033889     0.020456
     113     C        1         2.169301     1.867219    -0.036521     0.302082
     114     C        1         1.973054     2.036177    -0.009231    -0.063123
     115     C        1         2.013482     1.991798    -0.005280     0.021685
     116     C        1         1.993339     2.008105    -0.001443    -0.014766
     117     C        1         1.996020     2.006046    -0.002065    -0.010026
     118     C        1         1.997913     2.002792    -0.000705    -0.004879
     119     C        1         2.000696     1.999952    -0.000648     0.000744
     120     C        1         1.999297     2.001042    -0.000339    -0.001744
     121     C        1         1.998918     2.001465    -0.000383    -0.002547
     122     C        1         1.999165     2.001748    -0.000913    -0.002583
     123     C        1         1.998021     2.002471    -0.000492    -0.004451
     124     C        1         2.000944     1.999264    -0.000207     0.001680
     125     C        1         1.996916     2.003686    -0.000602    -0.006770
     126     C        1         2.004650     2.000980    -0.005630     0.003670
     127     C        1         1.992313     2.016666    -0.008979    -0.024353
     128     C        1         2.061103     1.977920    -0.039023     0.083183
     129     H        2         0.464636     0.469606     0.065758    -0.004970
     130     H        2         0.466093     0.468587     0.065320    -0.002495
     131     H        2         0.465720     0.468789     0.065491    -0.003068
     132     H        2         0.466229     0.468412     0.065359    -0.002184
     133     H        2         0.467187     0.468071     0.064742    -0.000885
     134     H        2         0.465549     0.466848     0.067603    -0.001299
     135     H        2         0.467785     0.467745     0.064470     0.000040
     136     H        2         0.460885     0.461438     0.077677    -0.000553
     137     H        2         0.467193     0.467733     0.065074    -0.000541
     138     H        2         0.465752     0.468814     0.065434    -0.003062
     139     H        2         0.461288     0.461315     0.077397    -0.000027
     140     H        2         0.464070     0.470208     0.065722    -0.006137
     141     H        2         0.465744     0.466318     0.067938    -0.000574
     142     H        2         0.463932     0.470303     0.065765    -0.006371
     143     H        2         0.466310     0.467911     0.065779    -0.001601
     144     O        3         3.142072     3.152482    -0.294554    -0.010410
 # Total charge and spin      267.000000   266.000000    -0.000000     1.000000

 !-----------------------------------------------------------------------------!

 Hirshfeld charge iterations: Residuals ...
   0.208   0.053   0.018   0.007
 !-----------------------------------------------------------------------------!
                           Hirshfeld Charges

  #Atom  Element  Kind  Ref Charge     Population       Spin moment  Net charge
      1       C      1       4.628    2.410   2.217            0.193     -0.628
      2       C      1       3.888    1.936   1.952           -0.015      0.112
      3       C      1       4.009    2.011   1.999            0.012     -0.009
      4       C      1       3.998    1.994   2.004           -0.010      0.002
      5       C      1       3.998    1.991   2.007           -0.017      0.002
      6       C      1       4.000    1.998   2.002           -0.004      0.000
      7       C      1       4.000    1.999   2.000           -0.001      0.000
      8       C      1       4.000    2.000   2.000           -0.000      0.000
      9       C      1       3.999    1.996   2.003           -0.006      0.001
     10       C      1       4.000    2.000   2.000           -0.000      0.000
     11       C      1       3.999    1.998   2.001           -0.003      0.001
     12       C      1       3.997    2.001   1.997            0.004      0.003
     13       C      1       3.998    1.996   2.003           -0.007      0.002
     14       C      1       4.006    2.005   2.001            0.004     -0.006
     15       C      1       3.886    1.938   1.948           -0.011      0.114
     16       C      1       4.638    2.373   2.265            0.108     -0.638
     17       C      1       4.636    2.378   2.259            0.119     -0.636
     18       C      1       3.887    1.939   1.947           -0.008      0.113
     19       C      1       4.004    1.996   2.008           -0.011     -0.004
     20       C      1       3.998    1.996   2.003           -0.007      0.002
     21       C      1       3.999    1.999   2.001           -0.002      0.001
     22       C      1       4.000    2.000   2.000           -0.001     -0.000
     23       C      1       3.999    1.996   2.003           -0.007      0.001
     24       C      1       4.000    2.000   2.001           -0.001     -0.000
     25       C      1       4.000    1.998   2.001           -0.003      0.000
     26       C      1       3.999    2.001   1.998            0.003      0.001
     27       C      1       3.999    1.997   2.002           -0.004      0.001
     28       C      1       4.000    2.000   2.000           -0.000      0.000
     29       C      1       3.998    1.996   2.003           -0.007      0.002
     30       C      1       4.003    2.008   1.995            0.013     -0.003
     31       C      1       3.887    1.939   1.948           -0.009      0.113
     32       C      1       4.642    2.367   2.275            0.092     -0.642
     33       C      1       4.645    2.345   2.300            0.045     -0.645
     34       C      1       3.886    1.942   1.944           -0.003      0.114
     35       C      1       4.003    1.995   2.008           -0.013     -0.003
     36       C      1       3.999    1.998   2.001           -0.002      0.001
     37       C      1       4.000    2.006   1.995            0.011     -0.000
     38       C      1       4.000    1.999   2.000           -0.001      0.000
     39       C      1       3.998    1.996   2.003           -0.007      0.002
     40       C      1       4.000    1.999   2.001           -0.001     -0.000
     41       C      1       4.000    1.999   2.001           -0.001     -0.000
     42       C      1       4.000    2.001   1.999            0.002     -0.000
     43       C      1       3.999    1.997   2.002           -0.005      0.001
     44       C      1       4.000    1.999   2.001           -0.002     -0.000
     45       C      1       3.998    1.997   2.001           -0.005      0.002
     46       C      1       4.006    2.009   1.997            0.012     -0.006
     47       C      1       3.894    1.943   1.950           -0.007      0.106
     48       C      1       4.628    2.338   2.290            0.048     -0.628
     49       C      1       4.645    2.316   2.329           -0.012     -0.645
     50       C      1       3.886    1.942   1.944           -0.002      0.114
     51       C      1       4.007    2.006   2.000            0.006     -0.007
     52       C      1       3.999    1.999   1.999            0.000      0.001
     53       C      1       3.999    2.002   1.997            0.005      0.001
     54       C      1       4.000    2.000   2.001           -0.001     -0.000
     55       C      1       4.000    2.000   2.000           -0.000     -0.000
     56       C      1       3.999    2.000   1.999            0.001      0.001
     57       C      1       3.999    1.998   2.001           -0.003      0.001
     58       C      1       4.000    2.000   2.000           -0.001      0.000
     59       C      1       4.001    1.999   2.002           -0.003     -0.001
     60       C      1       3.999    2.002   1.997            0.005      0.001
     61       C      1       3.998    1.998   2.001           -0.003      0.002
     62       C      1       4.005    2.002   2.002            0.000     -0.005
     63       C      1       4.000    1.996   2.004           -0.007     -0.000
     64       C      1       4.546    2.281   2.265            0.016     -0.546
     65       C      1       4.639    2.322   2.317            0.005     -0.639
     66       C      1       3.887    1.939   1.947           -0.008      0.113
     67       C      1       4.008    2.008   2.000            0.008     -0.008
     68       C      1       3.998    1.998   2.000           -0.002      0.002
     69       C      1       3.997    1.995   2.002           -0.006      0.003
     70       C      1       4.000    1.999   2.001           -0.003      0.000
     71       C      1       4.000    2.000   2.000            0.000      0.000
     72       C      1       4.000    2.001   1.999            0.001      0.000
     73       C      1       4.000    1.996   2.004           -0.008      0.000
     74       C      1       3.999    1.999   2.000           -0.002      0.001
     75       C      1       4.000    1.999   2.001           -0.002     -0.000
     76       C      1       3.999    2.005   1.994            0.010      0.001
     77       C      1       4.009    2.000   2.009           -0.008     -0.009
     78       C      1       4.000    1.999   2.001           -0.002      0.000
     79       C      1       4.000    1.999   2.002           -0.003     -0.000
     80       C      1       3.556    1.778   1.779           -0.001      0.444
     81       C      1       4.636    2.383   2.253            0.129     -0.636
     82       C      1       3.889    1.935   1.953           -0.018      0.111
     83       C      1       4.005    1.999   2.006           -0.007     -0.005
     84       C      1       3.998    1.995   2.003           -0.008      0.002
     85       C      1       3.999    1.999   2.000           -0.000      0.001
     86       C      1       3.999    1.998   2.001           -0.002      0.001
     87       C      1       3.999    1.997   2.002           -0.005      0.001
     88       C      1       4.000    1.999   2.001           -0.002     -0.000
     89       C      1       3.999    1.998   2.000           -0.002      0.001
     90       C      1       4.000    2.001   1.999            0.002      0.000
     91       C      1       3.999    1.998   2.001           -0.003      0.001
     92       C      1       4.003    2.003   2.000            0.003     -0.003
     93       C      1       3.999    1.999   2.000           -0.001      0.001
     94       C      1       4.002    2.006   1.996            0.010     -0.002
     95       C      1       3.894    1.946   1.948           -0.002      0.106
     96       C      1       4.551    2.273   2.278           -0.005     -0.551
     97       C      1       4.632    2.437   2.195            0.242     -0.632
     98       C      1       3.889    1.931   1.958           -0.026      0.111
     99       C      1       4.006    2.002   2.004           -0.002     -0.006
    100       C      1       3.999    1.993   2.005           -0.012      0.001
    101       C      1       4.002    2.002   2.000            0.002     -0.002
    102       C      1       3.999    1.997   2.002           -0.006      0.001
    103       C      1       3.999    1.997   2.002           -0.005      0.001
    104       C      1       4.000    1.998   2.002           -0.004      0.000
    105       C      1       3.999    2.000   1.999            0.001      0.001
    106       C      1       4.000    2.000   2.000           -0.000     -0.000
    107       C      1       4.000    1.998   2.002           -0.004      0.000
    108       C      1       4.001    1.999   2.002           -0.003     -0.001
    109       C      1       3.998    1.998   2.000           -0.002      0.002
    110       C      1       4.008    2.008   1.999            0.009     -0.008
    111       C      1       3.888    1.941   1.947           -0.006      0.112
    112       C      1       4.625    2.321   2.304            0.017     -0.625
    113       C      1       4.627    2.442   2.185            0.257     -0.627
    114       C      1       3.889    1.933   1.957           -0.024      0.111
    115       C      1       4.009    2.012   1.997            0.015     -0.009
    116       C      1       3.999    1.994   2.005           -0.012      0.001
    117       C      1       4.001    1.996   2.005           -0.010     -0.001
    118       C      1       4.000    1.997   2.003           -0.006      0.000
    119       C      1       4.000    2.000   2.000            0.000      0.000
    120       C      1       4.000    1.999   2.001           -0.002      0.000
    121       C      1       4.000    1.999   2.001           -0.002      0.000
    122       C      1       4.000    1.999   2.002           -0.003     -0.000
    123       C      1       4.000    1.998   2.002           -0.003     -0.000
    124       C      1       3.997    1.999   1.998            0.001      0.003
    125       C      1       3.998    1.996   2.001           -0.005      0.002
    126       C      1       4.010    2.006   2.004            0.002     -0.010
    127       C      1       3.887    1.939   1.948           -0.009      0.113
    128       C      1       4.632    2.351   2.281            0.071     -0.632
    129       H      2       0.458    0.228   0.230           -0.002      0.542
    130       H      2       0.458    0.228   0.230           -0.001      0.542
    131       H      2       0.458    0.228   0.230           -0.001      0.542
    132       H      2       0.458    0.228   0.230           -0.001      0.542
    133       H      2       0.458    0.229   0.229           -0.000      0.542
    134       H      2       0.457    0.228   0.229           -0.001      0.543
    135       H      2       0.458    0.229   0.229            0.000      0.542
    136       H      2       0.450    0.225   0.225           -0.000      0.550
    137       H      2       0.458    0.229   0.229           -0.000      0.542
    138       H      2       0.458    0.228   0.230           -0.001      0.542
    139       H      2       0.450    0.225   0.225            0.000      0.550
    140       H      2       0.458    0.228   0.231           -0.003      0.542
    141       H      2       0.457    0.228   0.228           -0.000      0.543
    142       H      2       0.458    0.228   0.231           -0.003      0.542
    143       H      2       0.458    0.229   0.229           -0.001      0.542
    144       O      3       6.620    3.305   3.315           -0.010     -0.620

  Total Charge                                                            0.134
 !-----------------------------------------------------------------------------!

 ENERGY| Total FORCE_EVAL ( QS ) energy [hartree]           -754.043913916359429

 -------------------------------------------------------------------------------
 -                                                                             -
 -                                DBCSR STATISTICS                             -
 -                                                                             -
 -------------------------------------------------------------------------------
 COUNTER                                    TOTAL       BLAS       SMM       ACC
 flops     5 x    10 x    10                30000     100.0%      0.0%      0.0%     
 flops     5 x    11 x    11                36300     100.0%      0.0%      0.0%     
 flops    10 x    10 x   439                87800     100.0%      0.0%      0.0%     
 flops    10 x    10 x   441                88200     100.0%      0.0%      0.0%     
 flops    11 x    11 x   439               106238     100.0%      0.0%      0.0%     
 flops    11 x    11 x   441               106722     100.0%      0.0%      0.0%     
 flops     5 x     8 x     8               153600     100.0%      0.0%      0.0%     
 flops    10 x    10 x   436               174400     100.0%      0.0%      0.0%     
 flops    11 x    11 x   436               211024     100.0%      0.0%      0.0%     
 flops    74 x     8 x    74               350464     100.0%      0.0%      0.0%     
 flops    75 x     8 x    75               360000     100.0%      0.0%      0.0%     
 flops     5 x    32 x    10               384000     100.0%      0.0%      0.0%     
 flops     5 x    10 x    32               384000     100.0%      0.0%      0.0%     
 flops     5 x    32 x    11               422400     100.0%      0.0%      0.0%     
 flops     5 x    11 x    32               422400     100.0%      0.0%      0.0%     
 flops    13 x    10 x    10               670800     100.0%      0.0%      0.0%     
 flops    13 x    11 x    11               811668     100.0%      0.0%      0.0%     
 flops    32 x     8 x    74               909312     100.0%      0.0%      0.0%     
 flops    74 x     8 x    64               909312     100.0%      0.0%      0.0%     
 flops    32 x     8 x    75               921600     100.0%      0.0%      0.0%     
 flops    75 x     8 x    64               921600     100.0%      0.0%      0.0%     
 flops   195 x     8 x    74               923520     100.0%      0.0%      0.0%     
 flops   195 x     8 x    75               936000     100.0%      0.0%      0.0%     
 flops   205 x     8 x    74               970880     100.0%      0.0%      0.0%     
 flops   205 x     8 x    75               984000     100.0%      0.0%      0.0%     
 flops   231 x     8 x    74              1094016     100.0%      0.0%      0.0%     
 flops   231 x     8 x    75              1108800     100.0%      0.0%      0.0%     
 flops    32 x    10 x   439              1123840     100.0%      0.0%      0.0%     
 flops    10 x    32 x   439              1123840     100.0%      0.0%      0.0%     
 flops    32 x    10 x   441              1128960     100.0%      0.0%      0.0%     
 flops    10 x    32 x   441              1128960     100.0%      0.0%      0.0%     
 flops   249 x     8 x    74              1179264     100.0%      0.0%      0.0%     
 flops   249 x     8 x    75              1195200     100.0%      0.0%      0.0%     
 flops    32 x    11 x   439              1236224     100.0%      0.0%      0.0%     
 flops    11 x    32 x   439              1236224     100.0%      0.0%      0.0%     
 flops    32 x    11 x   441              1241856     100.0%      0.0%      0.0%     
 flops    11 x    32 x   441              1241856     100.0%      0.0%      0.0%     
 flops     8 x     8 x     8              1324032     100.0%      0.0%      0.0%     
 flops    74 x    32 x    74              1401856     100.0%      0.0%      0.0%     
 flops    75 x    32 x    75              1440000     100.0%      0.0%      0.0%     
 flops   192 x     8 x    74              1818624     100.0%      0.0%      0.0%     
 flops   192 x     8 x    75              1843200     100.0%      0.0%      0.0%     
 flops    74 x     8 x   439              2079104     100.0%      0.0%      0.0%     
 flops    74 x     8 x   441              2088576     100.0%      0.0%      0.0%     
 flops    75 x     8 x   439              2107200     100.0%      0.0%      0.0%     
 flops    75 x     8 x   441              2116800     100.0%      0.0%      0.0%     
 flops    32 x    10 x   436              2232320     100.0%      0.0%      0.0%     
 flops    10 x    32 x   436              2232320     100.0%      0.0%      0.0%     
 flops   244 x     8 x    74              2311168     100.0%      0.0%      0.0%     
 flops   244 x     8 x    75              2342400     100.0%      0.0%      0.0%     
 flops    32 x    11 x   436              2455552     100.0%      0.0%      0.0%     
 flops    11 x    32 x   436              2455552     100.0%      0.0%      0.0%     
 flops    13 x     8 x     8              3434496     100.0%      0.0%      0.0%     
 flops    74 x    32 x    64              3637248     100.0%      0.0%      0.0%     
 flops    32 x    32 x    74              3637248     100.0%      0.0%      0.0%     
 flops    75 x    32 x    64              3686400     100.0%      0.0%      0.0%     
 flops    32 x    32 x    75              3686400     100.0%      0.0%      0.0%     
 flops   195 x    32 x    74              3694080     100.0%      0.0%      0.0%     
 flops   195 x    32 x    75              3744000     100.0%      0.0%      0.0%     
 flops   205 x    32 x    74              3883520     100.0%      0.0%      0.0%     
 flops   205 x    32 x    75              3936000     100.0%      0.0%      0.0%     
 flops    74 x     8 x   436              4129792     100.0%      0.0%      0.0%     
 flops    75 x     8 x   436              4185600     100.0%      0.0%      0.0%     
 flops    51 x     8 x    83              4266864     100.0%      0.0%      0.0%     
 flops    50 x     8 x    82              4329600     100.0%      0.0%      0.0%     
 flops   231 x    32 x    74              4376064     100.0%      0.0%      0.0%     
 flops   231 x    32 x    75              4435200     100.0%      0.0%      0.0%     
 flops   249 x    32 x    74              4717056     100.0%      0.0%      0.0%     
 flops   249 x    32 x    75              4780800     100.0%      0.0%      0.0%     
 flops    51 x     8 x    96              4935168     100.0%      0.0%      0.0%     
 flops    50 x     8 x    96              5068800     100.0%      0.0%      0.0%     
 flops     8 x     8 x    32              5296128     100.0%      0.0%      0.0%     
 flops     8 x    32 x     8              5296128     100.0%      0.0%      0.0%     
 flops    32 x     8 x     8              5296128     100.0%      0.0%      0.0%     
 flops    64 x     8 x    83              5354496     100.0%      0.0%      0.0%     
 flops    64 x     8 x    82              5541888     100.0%      0.0%      0.0%     
 flops    51 x     8 x    64              6580224     100.0%      0.0%      0.0%     
 flops    50 x     8 x    64              6758400     100.0%      0.0%      0.0%     
 flops   192 x    32 x    74              7274496     100.0%      0.0%      0.0%     
 flops   192 x    32 x    75              7372800     100.0%      0.0%      0.0%     
 flops    74 x    32 x   439              8316416     100.0%      0.0%      0.0%     
 flops    74 x    32 x   441              8354304     100.0%      0.0%      0.0%     
 flops    75 x    32 x   439              8428800     100.0%      0.0%      0.0%     
 flops    75 x    32 x   441              8467200     100.0%      0.0%      0.0%     
 flops    13 x    32 x    10              8586240     100.0%      0.0%      0.0%     
 flops    13 x    10 x    32              8586240     100.0%      0.0%      0.0%     
 flops     5 x    10 x     5              9040000     100.0%      0.0%      0.0%     
 flops   244 x    32 x    74              9244672     100.0%      0.0%      0.0%     
 flops   244 x    32 x    75              9369600     100.0%      0.0%      0.0%     
 flops    13 x    32 x    11              9444864     100.0%      0.0%      0.0%     
 flops    13 x    11 x    32              9444864     100.0%      0.0%      0.0%     
 flops     5 x    11 x     5              9881850     100.0%      0.0%      0.0%     
 flops    64 x     8 x    96             12681216     100.0%      0.0%      0.0%     
 flops    50 x    82 x   439             14399200     100.0%      0.0%      0.0%     
 flops    50 x    82 x   441             14464800     100.0%      0.0%      0.0%     
 flops    51 x    83 x   439             14866296     100.0%      0.0%      0.0%     
 flops    51 x    83 x   441             14934024     100.0%      0.0%      0.0%     
 flops    32 x     8 x    83             16063488     100.0%      0.0%      0.0%     
 flops   195 x     8 x    83             16314480     100.0%      0.0%      0.0%     
 flops    74 x    32 x   436             16519168     100.0%      0.0%      0.0%     
 flops    32 x     8 x    82             16625664     100.0%      0.0%      0.0%     
 flops    75 x    32 x   436             16742400     100.0%      0.0%      0.0%     
 flops    50 x    96 x   439             16857600     100.0%      0.0%      0.0%     
 flops   195 x     8 x    82             16885440     100.0%      0.0%      0.0%     
 flops    64 x     8 x    64             16908288     100.0%      0.0%      0.0%     
 flops    50 x    96 x   441             16934400     100.0%      0.0%      0.0%     
 flops    51 x    32 x    83             17067456     100.0%      0.0%      0.0%     
 flops   205 x     8 x    83             17151120     100.0%      0.0%      0.0%     
 flops    51 x    96 x   439             17194752     100.0%      0.0%      0.0%     
 flops    51 x    96 x   441             17273088     100.0%      0.0%      0.0%     
 flops    50 x    32 x    82             17318400     100.0%      0.0%      0.0%     
 flops     5 x     5 x    74             17730400     100.0%      0.0%      0.0%     
 flops   205 x     8 x    82             17751360     100.0%      0.0%      0.0%     
 flops     5 x     5 x    75             17970000     100.0%      0.0%      0.0%     
 flops    64 x    82 x   439             18430976     100.0%      0.0%      0.0%     
 flops    64 x    82 x   441             18514944     100.0%      0.0%      0.0%     
 flops    64 x    83 x   439             18655744     100.0%      0.0%      0.0%     
 flops    64 x    83 x   441             18740736     100.0%      0.0%      0.0%     
 flops   195 x     8 x     8             18819840     100.0%      0.0%      0.0%     
 flops   231 x     8 x    83             19326384     100.0%      0.0%      0.0%     
 flops    51 x    32 x    96             19740672     100.0%      0.0%      0.0%     
 flops   205 x     8 x     8             19784960     100.0%      0.0%      0.0%     
 flops   231 x     8 x    82             20002752     100.0%      0.0%      0.0%     
 flops    50 x    32 x    96             20275200     100.0%      0.0%      0.0%     
 flops   249 x     8 x    83             20832336     100.0%      0.0%      0.0%     
 flops    32 x    32 x     8             21184512     100.0%      0.0%      0.0%     
 flops     8 x    32 x    32             21184512     100.0%      0.0%      0.0%     
 flops    32 x     8 x    32             21184512     100.0%      0.0%      0.0%     
 flops    64 x    32 x    83             21417984     100.0%      0.0%      0.0%     
 flops   249 x     8 x    82             21561408     100.0%      0.0%      0.0%     
 flops    64 x    32 x    82             22167552     100.0%      0.0%      0.0%     
 flops   231 x     8 x     8             22294272     100.0%      0.0%      0.0%     
 flops    50 x    64 x   439             22476800     100.0%      0.0%      0.0%     
 flops    51 x     8 x   439             22568112     100.0%      0.0%      0.0%     
 flops    50 x    64 x   441             22579200     100.0%      0.0%      0.0%     
 flops    51 x     8 x   441             22670928     100.0%      0.0%      0.0%     
 flops    51 x    64 x   439             22926336     100.0%      0.0%      0.0%     
 flops    51 x    64 x   441             23030784     100.0%      0.0%      0.0%     
 flops    50 x     8 x   439             23179200     100.0%      0.0%      0.0%     
 flops    50 x     8 x   441             23284800     100.0%      0.0%      0.0%     
 flops     5 x     8 x     5             23594400     100.0%      0.0%      0.0%     
 flops   249 x     8 x     8             24031488     100.0%      0.0%      0.0%     
 flops     5 x    32 x    32             24576000     100.0%      0.0%      0.0%     
 flops    51 x    32 x    64             26320896     100.0%      0.0%      0.0%     
 flops    50 x    32 x    64             27033600     100.0%      0.0%      0.0%     
 flops     8 x     8 x   439             27983616     100.0%      0.0%      0.0%     
 flops     8 x     8 x   441             28111104     100.0%      0.0%      0.0%     
 flops    50 x    82 x   436             28601600     100.0%      0.0%      0.0%     
 flops    51 x    83 x   436             29529408     100.0%      0.0%      0.0%     
 flops   192 x     8 x    83             32126976     100.0%      0.0%      0.0%     
 flops   192 x     8 x    82             33251328     100.0%      0.0%      0.0%     
 flops    50 x    96 x   436             33484800     100.0%      0.0%      0.0%     
 flops    51 x    96 x   436             34154496     100.0%      0.0%      0.0%     
 flops    64 x    82 x   436             36610048     100.0%      0.0%      0.0%     
 flops    64 x    83 x   436             37056512     100.0%      0.0%      0.0%     
 flops   192 x     8 x     8             37060608     100.0%      0.0%      0.0%     
 flops    32 x     8 x    96             38043648     100.0%      0.0%      0.0%     
 flops   195 x     8 x    96             38638080     100.0%      0.0%      0.0%     
 flops   205 x     8 x    96             40619520     100.0%      0.0%      0.0%     
 flops   244 x     8 x    83             40828032     100.0%      0.0%      0.0%     
 flops   244 x     8 x    82             42256896     100.0%      0.0%      0.0%     
 flops    64 x    96 x   439             43155456     100.0%      0.0%      0.0%     
 flops    64 x    96 x   441             43352064     100.0%      0.0%      0.0%     
 flops    50 x    64 x   436             44646400     100.0%      0.0%      0.0%     
 flops    51 x     8 x   436             44827776     100.0%      0.0%      0.0%     
 flops    51 x    64 x   436             45539328     100.0%      0.0%      0.0%     
 flops   231 x     8 x    96             45771264     100.0%      0.0%      0.0%     
 flops    50 x     8 x   436             46041600     100.0%      0.0%      0.0%     
 flops   244 x     8 x     8             47097856     100.0%      0.0%      0.0%     
 flops   249 x     8 x    96             49337856     100.0%      0.0%      0.0%     
 flops    64 x    32 x    96             50724864     100.0%      0.0%      0.0%     
 flops    32 x    82 x   439             55292928     100.0%      0.0%      0.0%     
 flops    32 x     8 x    64             55443456     100.0%      0.0%      0.0%     
 flops    32 x    82 x   441             55544832     100.0%      0.0%      0.0%     
 flops     8 x     8 x   436             55584768     100.0%      0.0%      0.0%     
 flops    32 x    83 x   439             55967232     100.0%      0.0%      0.0%     
 flops    32 x    83 x   441             56222208     100.0%      0.0%      0.0%     
 flops   195 x     8 x    64             56309760     100.0%      0.0%      0.0%     
 flops    64 x    64 x   439             57540608     100.0%      0.0%      0.0%     
 flops    64 x    64 x   441             57802752     100.0%      0.0%      0.0%     
 flops    64 x     8 x   439             57990144     100.0%      0.0%      0.0%     
 flops    64 x     8 x   441             58254336     100.0%      0.0%      0.0%     
 flops   205 x     8 x    64             59197440     100.0%      0.0%      0.0%     
 flops    32 x    32 x    83             64253952     100.0%      0.0%      0.0%     
 flops   195 x    32 x    83             65257920     100.0%      0.0%      0.0%     
 flops    32 x    32 x    82             66502656     100.0%      0.0%      0.0%     
 flops   231 x     8 x    64             66705408     100.0%      0.0%      0.0%     
 flops   195 x    32 x    82             67541760     100.0%      0.0%      0.0%     
 flops    64 x    32 x    64             67633152     100.0%      0.0%      0.0%     
 flops   205 x    32 x    83             68604480     100.0%      0.0%      0.0%     
 flops   205 x    32 x    82             71005440     100.0%      0.0%      0.0%     
 flops   249 x     8 x    64             71903232     100.0%      0.0%      0.0%     
 flops   195 x     8 x    32             75279360     100.0%      0.0%      0.0%     
 flops   195 x    32 x     8             75279360     100.0%      0.0%      0.0%     
 flops   192 x     8 x    96             76087296     100.0%      0.0%      0.0%     
 flops   231 x    32 x    83             77305536     100.0%      0.0%      0.0%     
 flops   205 x     8 x    32             79139840     100.0%      0.0%      0.0%     
 flops   205 x    32 x     8             79139840     100.0%      0.0%      0.0%     
 flops   231 x    32 x    82             80011008     100.0%      0.0%      0.0%     
 flops   249 x    32 x    83             83329344     100.0%      0.0%      0.0%     
 flops    32 x    32 x    32             84738048     100.0%      0.0%      0.0%     
 flops    64 x    96 x   436             85721088     100.0%      0.0%      0.0%     
 flops   249 x    32 x    82             86245632     100.0%      0.0%      0.0%     
 flops   231 x     8 x    32             89177088     100.0%      0.0%      0.0%     
 flops   231 x    32 x     8             89177088     100.0%      0.0%      0.0%     
 flops    51 x    32 x   439             90272448     100.0%      0.0%      0.0%     
 flops    51 x    32 x   441             90683712     100.0%      0.0%      0.0%     
 flops     5 x     5 x    64             92006400     100.0%      0.0%      0.0%     
 flops    50 x    32 x   439             92716800     100.0%      0.0%      0.0%     
 flops    50 x    32 x   441             93139200     100.0%      0.0%      0.0%     
 flops   249 x    32 x     8             96125952     100.0%      0.0%      0.0%     
 flops   249 x     8 x    32             96125952     100.0%      0.0%      0.0%     
 flops   244 x     8 x    96             96694272     100.0%      0.0%      0.0%     
 flops    32 x    82 x   436            109830144     100.0%      0.0%      0.0%     
 flops   192 x     8 x    64            110886912     100.0%      0.0%      0.0%     
 flops    32 x    83 x   436            111169536     100.0%      0.0%      0.0%     
 flops     8 x    32 x   439            111934464     100.0%      0.0%      0.0%     
 flops     8 x    32 x   441            112444416     100.0%      0.0%      0.0%     
 flops    64 x    64 x   436            114294784     100.0%      0.0%      0.0%     
 flops    64 x     8 x   436            115187712     100.0%      0.0%      0.0%     
 flops   192 x    32 x    83            128507904     100.0%      0.0%      0.0%     
 flops    32 x    96 x   439            129466368     100.0%      0.0%      0.0%     
 flops    32 x    96 x   441            130056192     100.0%      0.0%      0.0%     
 flops   192 x    32 x    82            133005312     100.0%      0.0%      0.0%     
 flops   244 x     8 x    64            140918784     100.0%      0.0%      0.0%     
 flops   192 x    32 x     8            148242432     100.0%      0.0%      0.0%     
 flops   192 x     8 x    32            148242432     100.0%      0.0%      0.0%     
 flops    32 x    32 x    96            152174592     100.0%      0.0%      0.0%     
 flops   195 x    32 x    96            154552320     100.0%      0.0%      0.0%     
 flops   205 x    32 x    96            162478080     100.0%      0.0%      0.0%     
 flops   244 x    32 x    83            163312128     100.0%      0.0%      0.0%     
 flops   244 x    32 x    82            169027584     100.0%      0.0%      0.0%     
 flops    51 x    32 x   436            179311104     100.0%      0.0%      0.0%     
 flops   231 x    32 x    96            183085056     100.0%      0.0%      0.0%     
 flops    50 x    32 x   436            184166400     100.0%      0.0%      0.0%     
 flops   244 x     8 x    32            188391424     100.0%      0.0%      0.0%     
 flops   244 x    32 x     8            188391424     100.0%      0.0%      0.0%     
 flops   249 x    32 x    96            197351424     100.0%      0.0%      0.0%     
 flops    32 x    32 x    64            221773824     100.0%      0.0%      0.0%     
 flops     8 x    32 x   436            222339072     100.0%      0.0%      0.0%     
 flops   195 x    32 x    64            225239040     100.0%      0.0%      0.0%     
 flops     5 x    10 x    13            226096000     100.0%      0.0%      0.0%     
 flops    13 x    10 x     5            226096000     100.0%      0.0%      0.0%     
 flops    64 x    32 x   439            231960576     100.0%      0.0%      0.0%     
 flops    64 x    32 x   441            233017344     100.0%      0.0%      0.0%     
 flops   205 x    32 x    64            236789760     100.0%      0.0%      0.0%     
 flops     5 x    11 x    13            247151190     100.0%      0.0%      0.0%     
 flops    13 x    11 x     5            247151190     100.0%      0.0%      0.0%     
 flops    32 x    96 x   436            257163264     100.0%      0.0%      0.0%     
 flops   231 x    32 x    64            266821632     100.0%      0.0%      0.0%     
 flops   249 x    32 x    64            287612928     100.0%      0.0%      0.0%     
 flops    32 x     8 x   439            296693760     100.0%      0.0%      0.0%     
 flops    32 x     8 x   441            298045440     100.0%      0.0%      0.0%     
 flops   195 x    32 x    32            301117440     100.0%      0.0%      0.0%     
 flops   192 x    32 x    96            304349184     100.0%      0.0%      0.0%     
 flops   205 x    32 x    32            316559360     100.0%      0.0%      0.0%     
 flops   231 x    32 x    32            356708352     100.0%      0.0%      0.0%     
 flops   249 x    32 x    32            384503808     100.0%      0.0%      0.0%     
 flops   244 x    32 x    96            386777088     100.0%      0.0%      0.0%     
 flops     5 x    13 x    74            389225200     100.0%      0.0%      0.0%     
 flops    13 x     5 x    74            392746120     100.0%      0.0%      0.0%     
 flops     5 x    13 x    75            394485000     100.0%      0.0%      0.0%     
 flops    13 x     5 x    75            398053500     100.0%      0.0%      0.0%     
 flops   192 x    32 x    64            443547648     100.0%      0.0%      0.0%     
 flops    64 x    32 x   436            460750848     100.0%      0.0%      0.0%     
 flops    74 x    74 x    74            520307616     100.0%      0.0%      0.0%     
 flops    75 x    75 x    75            541687500     100.0%      0.0%      0.0%     
 flops    13 x    32 x    32            549519360     100.0%      0.0%      0.0%     
 flops     5 x    32 x     5            555779200     100.0%      0.0%      0.0%     
 flops   244 x    32 x    64            563675136     100.0%      0.0%      0.0%     
 flops    32 x     8 x   436            589332480     100.0%      0.0%      0.0%     
 flops    13 x     8 x     5            590110560     100.0%      0.0%      0.0%     
 flops     5 x     8 x    13            590110560     100.0%      0.0%      0.0%     
 flops   192 x    32 x    32            592969728     100.0%      0.0%      0.0%     
 flops   244 x    32 x    32            753565696     100.0%      0.0%      0.0%     
 flops   195 x    74 x    74            764559120     100.0%      0.0%      0.0%     
 flops   195 x    75 x    75            785362500     100.0%      0.0%      0.0%     
 flops   205 x    74 x    74            803767280     100.0%      0.0%      0.0%     
 flops   205 x    75 x    75            825637500     100.0%      0.0%      0.0%     
 flops   231 x    74 x    74            905708496     100.0%      0.0%      0.0%     
 flops   195 x    74 x   439            924876420     100.0%      0.0%      0.0%     
 flops   195 x    74 x   441            929089980     100.0%      0.0%      0.0%     
 flops   231 x    75 x    75            930352500     100.0%      0.0%      0.0%     
 flops   195 x    75 x   439            937374750     100.0%      0.0%      0.0%     
 flops   195 x    75 x   441            941645250     100.0%      0.0%      0.0%     
 flops   205 x    74 x   439            972305980     100.0%      0.0%      0.0%     
 flops   249 x    74 x    74            976283184     100.0%      0.0%      0.0%     
 flops   205 x    74 x   441            976735620     100.0%      0.0%      0.0%     
 flops   205 x    75 x   439            985445250     100.0%      0.0%      0.0%     
 flops   205 x    75 x   441            989934750     100.0%      0.0%      0.0%     
 flops   249 x    75 x    75           1002847500     100.0%      0.0%      0.0%     
 flops   231 x    74 x   439           1095622836     100.0%      0.0%      0.0%     
 flops   231 x    74 x   441           1100614284     100.0%      0.0%      0.0%     
 flops   231 x    75 x   439           1110428550     100.0%      0.0%      0.0%     
 flops   231 x    75 x   441           1115487450     100.0%      0.0%      0.0%     
 flops   249 x    74 x   439           1180996044     100.0%      0.0%      0.0%     
 flops   249 x    74 x   441           1186376436     100.0%      0.0%      0.0%     
 flops   249 x    75 x   439           1196955450     100.0%      0.0%      0.0%     
 flops   249 x    75 x   441           1202408550     100.0%      0.0%      0.0%     
 flops    32 x    32 x   439           1251508224     100.0%      0.0%      0.0%     
 flops    32 x    32 x   441           1257209856     100.0%      0.0%      0.0%     
 flops    74 x    74 x    64           1349987328     100.0%      0.0%      0.0%     
 flops    32 x    74 x    74           1349987328     100.0%      0.0%      0.0%     
 flops    74 x    64 x    74           1349987328     100.0%      0.0%      0.0%     
 flops    75 x    75 x    64           1386720000     100.0%      0.0%      0.0%     
 flops    32 x    75 x    75           1386720000     100.0%      0.0%      0.0%     
 flops    75 x    64 x    75           1386720000     100.0%      0.0%      0.0%     
 flops    74 x    74 x   439           1399107048     100.0%      0.0%      0.0%     
 flops    74 x    74 x   441           1405481112     100.0%      0.0%      0.0%     
 flops    75 x    75 x   439           1437176250     100.0%      0.0%      0.0%     
 flops    75 x    75 x   441           1443723750     100.0%      0.0%      0.0%     
 flops   192 x    74 x    74           1505593344     100.0%      0.0%      0.0%     
 flops   192 x    75 x    75           1546560000     100.0%      0.0%      0.0%     
 flops   192 x    74 x   439           1821295104     100.0%      0.0%      0.0%     
 flops   192 x    74 x   441           1829592576     100.0%      0.0%      0.0%     
 flops   195 x    74 x   436           1837112160     100.0%      0.0%      0.0%     
 flops   192 x    75 x   439           1845907200     100.0%      0.0%      0.0%     
 flops   192 x    75 x   441           1854316800     100.0%      0.0%      0.0%     
 flops   195 x    75 x   436           1861938000     100.0%      0.0%      0.0%     
 flops   244 x    74 x    74           1913358208     100.0%      0.0%      0.0%     
 flops   205 x    74 x   436           1931323040     100.0%      0.0%      0.0%     
 flops   205 x    75 x   436           1957422000     100.0%      0.0%      0.0%     
 flops   244 x    75 x    75           1965420000     100.0%      0.0%      0.0%     
 flops   195 x    64 x    74           1983720960     100.0%      0.0%      0.0%     
 flops   195 x    74 x    64           1983720960     100.0%      0.0%      0.0%     
 flops   195 x    64 x    75           2010528000     100.0%      0.0%      0.0%     
 flops   195 x    75 x    64           2010528000     100.0%      0.0%      0.0%     
 flops     5 x    13 x    64           2019763200     100.0%      0.0%      0.0%     
 flops    13 x     5 x    64           2038033920     100.0%      0.0%      0.0%     
 flops   205 x    64 x    74           2085450240     100.0%      0.0%      0.0%     
 flops   205 x    74 x    64           2085450240     100.0%      0.0%      0.0%     
 flops   205 x    64 x    75           2113632000     100.0%      0.0%      0.0%     
 flops   205 x    75 x    64           2113632000     100.0%      0.0%      0.0%     
 flops   231 x    74 x   436           2176271328     100.0%      0.0%      0.0%     
 flops   231 x    75 x   436           2205680400     100.0%      0.0%      0.0%     
 flops   244 x    74 x   439           2314562528     100.0%      0.0%      0.0%     
 flops   244 x    74 x   441           2325107232     100.0%      0.0%      0.0%     
 flops   244 x    75 x   439           2345840400     100.0%      0.0%      0.0%     
 flops   249 x    74 x   436           2345850912     100.0%      0.0%      0.0%     
 flops   231 x    64 x    74           2349946368     100.0%      0.0%      0.0%     
 flops   231 x    74 x    64           2349946368     100.0%      0.0%      0.0%     
 flops   244 x    75 x   441           2356527600     100.0%      0.0%      0.0%     
 flops   249 x    75 x   436           2377551600     100.0%      0.0%      0.0%     
 flops   231 x    64 x    75           2381702400     100.0%      0.0%      0.0%     
 flops   231 x    75 x    64           2381702400     100.0%      0.0%      0.0%     
 flops    32 x    32 x   436           2485911552     100.0%      0.0%      0.0%     
 flops   249 x    74 x    64           2533059072     100.0%      0.0%      0.0%     
 flops   249 x    64 x    74           2533059072     100.0%      0.0%      0.0%     
 flops   249 x    75 x    64           2567289600     100.0%      0.0%      0.0%     
 flops   249 x    64 x    75           2567289600     100.0%      0.0%      0.0%     
 flops    74 x    74 x   436           2779091904     100.0%      0.0%      0.0%     
 flops    75 x    75 x   436           2854710000     100.0%      0.0%      0.0%     
 flops    32 x    64 x    74           3502669824     100.0%      0.0%      0.0%     
 flops    32 x    74 x    64           3502669824     100.0%      0.0%      0.0%     
 flops    74 x    64 x    64           3502669824     100.0%      0.0%      0.0%     
 flops    32 x    64 x    75           3550003200     100.0%      0.0%      0.0%     
 flops    32 x    75 x    64           3550003200     100.0%      0.0%      0.0%     
 flops    75 x    64 x    64           3550003200     100.0%      0.0%      0.0%     
 flops   192 x    74 x   436           3617697792     100.0%      0.0%      0.0%     
 flops    32 x    74 x   439           3630115584     100.0%      0.0%      0.0%     
 flops    74 x    64 x   439           3630115584     100.0%      0.0%      0.0%     
 flops    32 x    74 x   441           3646653696     100.0%      0.0%      0.0%     
 flops    74 x    64 x   441           3646653696     100.0%      0.0%      0.0%     
 flops   192 x    75 x   436           3666585600     100.0%      0.0%      0.0%     
 flops    32 x    75 x   439           3679171200     100.0%      0.0%      0.0%     
 flops    75 x    64 x   439           3679171200     100.0%      0.0%      0.0%     
 flops    32 x    75 x   441           3695932800     100.0%      0.0%      0.0%     
 flops    75 x    64 x   441           3695932800     100.0%      0.0%      0.0%     
 flops   192 x    74 x    64           3906404352     100.0%      0.0%      0.0%     
 flops   192 x    64 x    74           3906404352     100.0%      0.0%      0.0%     
 flops   192 x    75 x    64           3959193600     100.0%      0.0%      0.0%     
 flops   192 x    64 x    75           3959193600     100.0%      0.0%      0.0%     
 flops   244 x    74 x   436           4597490944     100.0%      0.0%      0.0%     
 flops   244 x    75 x   436           4659619200     100.0%      0.0%      0.0%     
 flops   195 x    64 x   439           4799358720     100.0%      0.0%      0.0%     
 flops   195 x    64 x   441           4821223680     100.0%      0.0%      0.0%     
 flops   244 x    64 x    74           4964388864     100.0%      0.0%      0.0%     
 flops   244 x    74 x    64           4964388864     100.0%      0.0%      0.0%     
 flops   244 x    64 x    75           5031475200     100.0%      0.0%      0.0%     
 flops   244 x    75 x    64           5031475200     100.0%      0.0%      0.0%     
 flops   205 x    64 x   439           5045479680     100.0%      0.0%      0.0%     
 flops   205 x    64 x   441           5068465920     100.0%      0.0%      0.0%     
 flops   231 x    64 x   439           5685394176     100.0%      0.0%      0.0%     
 flops   231 x    64 x   441           5711295744     100.0%      0.0%      0.0%     
 flops   249 x    64 x   439           6128411904     100.0%      0.0%      0.0%     
 flops   249 x    64 x   441           6156331776     100.0%      0.0%      0.0%     
 flops    13 x    10 x    13           6940086400     100.0%      0.0%      0.0%     
 flops    32 x    74 x   436           7210616832     100.0%      0.0%      0.0%     
 flops    74 x    64 x   436           7210616832     100.0%      0.0%      0.0%     
 flops    32 x    75 x   436           7308057600     100.0%      0.0%      0.0%     
 flops    75 x    64 x   436           7308057600     100.0%      0.0%      0.0%     
 flops    13 x    11 x    13           7586381946     100.0%      0.0%      0.0%     
 flops   192 x    64 x   439           9451044864     100.0%      0.0%      0.0%     
 flops   192 x    64 x   441           9494102016     100.0%      0.0%      0.0%     
 flops   195 x    64 x   436           9533122560     100.0%      0.0%      0.0%     
 flops   205 x    64 x   436          10022000640     100.0%      0.0%      0.0%     
 flops   195 x    64 x    64          10293903360     100.0%      0.0%      0.0%     
 flops   205 x    64 x    64          10821795840     100.0%      0.0%      0.0%     
 flops   231 x    64 x   436          11293083648     100.0%      0.0%      0.0%     
 flops   244 x    64 x   439          12010702848     100.0%      0.0%      0.0%     
 flops    13 x    13 x    74          12043227976     100.0%      0.0%      0.0%     
 flops   244 x    64 x   441          12065421312     100.0%      0.0%      0.0%     
 flops   249 x    64 x   436          12173064192     100.0%      0.0%      0.0%     
 flops   231 x    64 x    64          12194316288     100.0%      0.0%      0.0%     
 flops    13 x    13 x    75          12205974300     100.0%      0.0%      0.0%     
 flops   249 x    64 x    64          13144522752     100.0%      0.0%      0.0%     
 flops     5 x    32 x    13          13900382080     100.0%      0.0%      0.0%     
 flops    13 x    32 x     5          13900382080     100.0%      0.0%      0.0%     
 flops    13 x     8 x    13          18113625504     100.0%      0.0%      0.0%     
 flops    32 x    64 x    64          18176016384     100.0%      0.0%      0.0%     
 flops   192 x    64 x   436          18772918272     100.0%      0.0%      0.0%     
 flops    32 x    64 x   439          19009978368     100.0%      0.0%      0.0%     
 flops    32 x    64 x   441          19096584192     100.0%      0.0%      0.0%     
 flops   192 x    64 x    64          20271071232     100.0%      0.0%      0.0%     
 flops   244 x    64 x   436          23857250304     100.0%      0.0%      0.0%     
 flops   244 x    64 x    64          25761153024     100.0%      0.0%      0.0%     
 flops    32 x    64 x   436          37760139264     100.0%      0.0%      0.0%     
 flops    13 x    13 x    64          62494588416     100.0%      0.0%      0.0%     
 flops    13 x    32 x    13         426676511872     100.0%      0.0%      0.0%     
 flops inhomo. stacks                           0       0.0%      0.0%      0.0%
 flops total                         1.216247E+12     100.0%      0.0%      0.0%
 flops max/rank                    103.683507E+09     100.0%      0.0%      0.0%
 matmuls inhomo. stacks                         0       0.0%      0.0%      0.0%
 matmuls total                           64155264     100.0%      0.0%      0.0%
 number of processed stacks                767150     100.0%      0.0%      0.0%
 average stack size                                    83.6       0.0       0.0
 marketing flops                   129.860490E-24
 -------------------------------------------------------------------------------
 # multiplications                           6721
 max memory usage/rank               2.381943E+09
 # max total images/rank                        1
 # max 3D layers                                1
 # MPI messages exchanged                  645216
 MPI messages size (bytes):
  total size                       -90.590293E+33
  min size                           0.000000E+00
  max size                           1.555848E+06
  average size                    -140.403049E+27
 MPI breakdown and total messages size (bytes):
             size <=      128              187440                        0
       128 < size <=     8192               43512                144883584
      8192 < size <=    32768              122898               3845178552
     32768 < size <=   131072              102918               6203458224
    131072 < size <=  4194304              188448              90833879424
   4194304 < size <= 16777216                   0                        0
  16777216 < size                               0                        0
 -------------------------------------------------------------------------------
 -                                                                             -
 -                      DBCSR MESSAGE PASSING PERFORMANCE                      -
 -                                                                             -
 -------------------------------------------------------------------------------
 ROUTINE             CALLS      AVE VOLUME [Bytes]
 MP_Bcast              420                     12.
 MP_Allreduce        32758                      9.
 MP_Alltoall         23906                  13091.
 MP_ISend           107480                  66321.
 MP_IRecv           107480                  64144.
 -------------------------------------------------------------------------------

 -------------------------------------------------------------------------------
 -                                                                             -
 -                                GRID STATISTICS                              -
 -                                                                             -
 -------------------------------------------------------------------------------
 LP    KERNEL             BACKEND                              COUNT     PERCENT
 4     collocate ortho    CPU                                7882832      43.56%
 4     integrate ortho    CPU                                7774848      42.97%
 3     collocate ortho    CPU                                1077334       5.95%
 3     integrate ortho    CPU                                1062576       5.87%
 2     collocate ortho    CPU                                 134466       0.74%
 2     integrate ortho    CPU                                 132624       0.73%
 0     integrate general  CPU                                  18432       0.10%
 0     collocate general  CPU                                  11520       0.06%
 -------------------------------------------------------------------------------

 -------------------------------------------------------------------------------
 -                                                                             -
 -                          OFFLOAD MEMPOOL STATISTICS                         -
 -                                                                             -
 -------------------------------------------------------------------------------
 Memory consumption                Number of allocations  Used [MiB]  Size [MiB]
 Device                                                7          21          21
 Host                                                  7          21          21
 -------------------------------------------------------------------------------

 MEMORY| Estimated peak process memory [MiB]                                 632

 -------------------------------------------------------------------------------
 -                                                                             -
 -                         MESSAGE PASSING PERFORMANCE                         -
 -                                                                             -
 -------------------------------------------------------------------------------

 ROUTINE             CALLS      AVE VOLUME [Bytes]
 MP_Group                4
 MP_Bcast            20241                   1796.
 MP_Allreduce        55385                    502.
 MP_Sync               340
 MP_Alltoall          2691               15541895.
 MP_SendRecv          4380                  89760.
 MP_ISendRecv         4320                  89760.
 MP_Wait             17959
 MP_comm_split         336
 MP_ISend            11860                 334525.
 MP_IRecv            11860                 334545.
 -------------------------------------------------------------------------------


 -------------------------------------------------------------------------------
 -                                                                             -
 -                           R E F E R E N C E S                               -
 -                                                                             -
 -------------------------------------------------------------------------------
 
 CP2K version 2026.1, the CP2K developers group (2026).
 CP2K is freely available from https://www.cp2k.org/ .
 
 T. D. Kuehne, M. Iannuzzi, M. Del Ben, V. V. Rybkin, P. Seewald, F. Stein, T. 
 Laino, R. Z. Khaliullin, O. Schuett, F. Schiffmann, D. Golze, J. Wilhelm, S. 
 Chulkov, M. H. Bani-Hashemian, V. Weber, U. Borstnik, M. Taillefumier, A. S. 
 Jakobovits, A. Lazzaro, H. Pabst, T. Mueller, R. Schade, M. Guidon, S. 
 Andermatt, N. Holmberg, G. K. Schenter, A. Hehn, A. Bussy, F. Belleflamme, G. 
 Tabacchi, A. Gloess, M. Lass, I. Bethune, C. J. Mundy, C. Plessl, M. Watkins, 
 J. VandeVondele, M. Krack, J. Hutter.
 J. Chem. Phys. 152, 194103 (2020).
 CP2K: An electronic structure and molecular dynamics software package - 
 Quickstep: Efficient and accurate electronic structure calculations.
 https://doi.org/10.1063/5.0007045

 L. Goerigk, A. Hansen, C. Bauer, S. Ehrlich, A. Najibi, S. Grimme.
 Phys. Chem. Chem. Phys. 19, 32184-32215 (2017).
 A look at the density functional theory zoo with the advanced GMTKN55 database 
 for general main group thermochemistry, kinetics and noncovalent interactions.
 https://doi.org/10.1039/C7CP04913G

 O. Schuett, P. Messmer, J. Hutter, J. VandeVondele.
 Electronic Structure Calculations on Graphics Processing Units, 173-190 (2016).
 GPU-Accelerated Sparse Matrix-Matrix Multiplication for Linear Scaling Density 
 Functional Theory.
 https://doi.org/10.1002/9781118670712.ch8

 A. Heinecke, G. Henry, M. Hutchinson, H. Pabst.
 Proceedings of Intl. Supercomputing Conference, 981-991 (2016).
 LIBXSMM: Accelerating Small Matrix Multiplications by Runtime Code Generation.
 https://doi.org/10.1109/SC.2016.83

 J. Hutter, M. Iannuzzi, F. Schiffmann, J. VandeVondele.
 WIREs Comput Mol Sci. 4, 15-25 (2014).
 CP2K: atomistic simulations of condensed matter systems.
 https://doi.org/10.1002/wcms.1159

 U. Borstnik, J. VandeVondele, V. Weber, J. Hutter.
 Parallel Comput. 40, 47-58 (2014).
 Sparse matrix multiplication: The distributed block-compressed sparse row 
 library.
 https://doi.org/10.1016/j.parco.2014.03.012

 S. Grimme, S. Ehrlich, L. Goerigk.
 J. Comput. Chem. 32, 1456 (2011).
 Effect of the damping function in dispersion corrected density functional 
 theory.
 https://doi.org/10.1002/jcc.21759

 S. Grimme, J. Antony, S. Ehrlich, H. Krieg.
 J. Chem. Phys. 132, 154104 (2010).
 A consistent and accurate ab initio parametrization of density functional 
 dispersion correction (DFT-D) for the 94 elements H-Pu.
 https://doi.org/10.1063/1.3382344

 J. VandeVondele, J. Hutter.
 J. Chem. Phys. 127, 114105 (2007).
 Gaussian basis sets for accurate calculations on molecular systems in gas and 
 condensed phases.
 https://doi.org/10.1063/1.2770708

 J. VandeVondele, M. Krack, F. Mohamed, M. Parrinello, T. Chassaing, J. Hutter.
 Comput. Phys. Commun. 167, 103-128 (2005).
 QUICKSTEP: Fast and accurate density functional calculations using a mixed 
 Gaussian and plane waves approach.
 https://doi.org/10.1016/j.cpc.2004.12.014

 M. Krack.
 Theor. Chem. Acc. 114, 145-152 (2005).
 Pseudopotentials for H to Kr optimized for gradient-corrected 
 exchange-correlation functionals.
 https://doi.org/10.1007/s00214-005-0655-y

 M. Frigo, S. G. Johnson.
 Proc. IEEE 93, 216-231 (2005).
 The design and implementation of FFTW3.
 https://doi.org/10.1109/JPROC.2004.840301

 J. VandeVondele, J. Hutter.
 J. Chem. Phys. 118, 4365-4369 (2003).
 An efficient orbital transformation method for electronic structure 
 calculations.
 https://doi.org/10.1063/1.1543154

 C. Hartwigsen, S. Goedecker, J. Hutter.
 Phys. Rev. B 58, 3641-3662 (1998).
 Relativistic separable dual-space Gaussian pseudopotentials from H to Rn.
 https://doi.org/10.1103/PhysRevB.58.3641

 G. Lippert, J. Hutter, M. Parrinello.
 Mol. Phys. 92, 477-487 (1997).
 A hybrid Gaussian and plane wave density functional scheme.
 https://doi.org/10.1080/002689797170220

 S. Goedecker, M. Teter, J. Hutter.
 Phys. Rev. B 54, 1703-1710 (1996).
 Separable dual-space Gaussian pseudopotentials.
 https://doi.org/10.1103/PhysRevB.54.1703

 J. P. Perdew, K. Burke, M. Ernzerhof.
 Phys. Rev. Lett. 77, 3865-3868 (1996).
 Generalized gradient approximation made simple.
 https://doi.org/10.1103/PhysRevLett.77.3865


 -------------------------------------------------------------------------------
 -                                                                             -
 -                                T I M I N G                                  -
 -                                                                             -
 -------------------------------------------------------------------------------
 SUBROUTINE                       CALLS  ASD         SELF TIME        TOTAL TIME
                                MAXIMUM       AVERAGE  MAXIMUM  AVERAGE  MAXIMUM
 CP2K                                 1  1.0    0.022    0.028   89.265   89.265
 qs_energies                          1  2.0    0.000    0.000   88.990   88.990
 scf_env_do_scf                       1  3.0    0.000    0.000   80.209   80.209
 scf_env_do_scf_inner_loop           72  4.0    0.002    0.006   79.057   79.060
 qs_ks_update_qs_env                 73  5.0    0.001    0.001   48.902   48.935
 rebuild_ks_matrix                   72  6.0    0.000    0.000   48.850   48.883
 qs_ks_build_kohn_sham_matrix        72  7.0    0.012    0.014   48.850   48.883
 fft_wrap_pw1pw2                   2387 10.4    0.065    0.076   34.836   37.186
 fft_wrap_pw1pw2_80                1517 11.8    1.623    2.055   33.079   34.435
 fft3d_ps                          2387 12.4   13.809   15.251   24.923   31.604
 qs_vxc_create                       72  8.0    0.002    0.003   29.156   29.514
 xc_vxc_pw_create                    72  9.0    0.597    0.810   29.154   29.513
 xc_pw_derive                       864 11.0    0.014    0.019   21.379   22.918
 qs_rho_update_rho_low               73  5.0    0.000    0.000   19.665   19.670
 calculate_rho_elec                 146  6.0    0.210    0.224   19.664   19.669
 mp_alltoall_z22v                  2387 14.4    6.730   18.196    6.730   18.196
 density_rs2pw                      146  7.0    0.007    0.008   14.628   16.881
 xc_pw_divergence                   144 10.0    0.008    0.010   14.325   15.504
 sum_up_and_integrate                72  8.0    0.003    0.003   15.152   15.168
 integrate_v_rspace                 144  9.0    0.006    0.007   15.038   15.047
 dbcsr_multiply_generic            6721 10.0    0.164    0.173   14.357   14.542
 xc_rho_set_and_dset_create          72 10.0    0.621    1.002   13.677   14.289
 yz_to_x                           1161 12.9    1.999    2.399    5.440   11.579
 qs_scf_new_mos                      72  5.0    0.000    0.000   11.132   11.163
 qs_scf_loop_do_ot                   72  6.0    0.000    0.001   11.132   11.163
 ot_scf_mini                         72  7.0    0.002    0.002   10.565   10.597
 x_to_yz                           1226 13.8    2.321    2.625    5.611    9.849
 grid_collocate_task_list           146  7.0    4.361    9.624    4.361    9.624
 transfer_rs2pw                     589  8.0    0.006    0.007    7.280    9.501
 mp_waitany                       11860 11.4    6.801    9.099    6.801    9.099
 transfer_rs2pw_80                  151  9.0    0.402    0.477    6.186    8.457
 grid_integrate_task_list           144 10.0    3.134    8.330    3.134    8.330
 scf_post_calculation_gpw             1  3.0    0.000    0.000    8.252    8.253
 write_available_results              1  4.0    0.000    0.000    8.252    8.253
 multiply_cannon                   6721 11.0    0.303    0.316    7.828    8.252
 write_mo_dependent_results           1  5.0    0.004    0.005    8.083    8.083
 calculate_projected_dos              2  6.0    0.018    0.025    7.976    7.983
 mp_alltoall_d11v                  5156 12.6    5.469    7.542    5.469    7.542
 rs_gather_matrices                 144 10.0    0.067    0.115    5.296    7.389
 ot_eigensolver                       2  7.0    0.003    0.004    6.994    6.994
 ot_mini                            328  8.0    0.001    0.001    6.731    6.758
 potential_pw2rs                    144 10.0    0.038    0.046    6.601    6.630
 multiply_cannon_loop              6721 12.0    0.118    0.126    5.965    6.551
 qs_ot_get_p                        410  8.0    0.002    0.002    5.684    5.830
 mp_waitall_1                    328707 14.2    3.682    5.138    3.682    5.138
 qs_ot_get_derivative               273  9.0    0.002    0.002    4.961    4.989
 make_m2s                         13442 11.0    0.087    0.098    4.543    4.814
 pw_gather_p                       1161 11.9    4.066    4.778    4.066    4.778
 cp_fm_syevd                        336 10.9    0.001    0.002    4.433    4.440
 cp_fm_redistribute_end             336 11.9    2.179    4.282    2.190    4.297
 cp_fm_syevd_base                   336 11.9    2.101    4.207    2.101    4.207
 multiply_cannon_multrec          26884 13.0    3.025    4.185    3.043    4.203
 qs_ot_p2m_diag                     322  9.0    0.029    0.044    4.140    4.160
 make_images                      13442 12.0    0.926    1.256    3.722    3.924
 pw_scatter_p                      1226 12.8    2.795    3.751    2.795    3.751
 cp_dbcsr_syevd                     322 10.0    0.015    0.015    3.639    3.647
 qs_ot_get_derivative_diag          227 10.0    0.006    0.006    3.057    3.084
 transfer_pw2rs                     584 10.9    0.006    0.008    2.716    2.729
 xc_functional_eval                  72 11.0    0.002    0.002    2.273    2.439
 pbe_lsd_eval                        72 12.0    2.272    2.437    2.272    2.437
 multiply_cannon_metrocomm3       26884 13.0    0.034    0.035    1.459    2.379
 pw_derive                         1080 11.6    1.964    2.263    1.964    2.263
 fft_wrap_pw1pw2_30                 290 10.5    0.054    0.082    1.278    2.064
 mp_sum_d                         14049 11.2    0.862    1.891    0.862    1.891
 make_images_data                 13442 13.0    0.067    0.080    1.454    1.803
 -------------------------------------------------------------------------------

 The number of warnings for this run is : 0
 
 -------------------------------------------------------------------------------
  **** **** ******  **  PROGRAM ENDED AT                 2026-06-19 19:49:06.591
 ***** ** ***  *** **   PROGRAM RAN ON             ip-172-31-89-158.ec2.internal
 **    ****   ******    PROGRAM RAN BY                                 <unknown>
 ***** **    ** ** **   PROGRAM PROCESS ID                                 10254
  **** **  *******  **  PROGRAM STOPPED IN /opt/cp2k_sanity/cp2k_adsorption_hete
                                           rogeneity
