 DBCSR| CPU Multiplication driver                                           BLAS (U)
 DBCSR| Multrec recursion limit                                              512 (U)
 DBCSR| Multiplication stack size                                           1000 (D)
 DBCSR| Maximum elements for images                                    UNLIMITED (U)
 DBCSR| Multiplicative factor virtual images                                   1 (U)
 DBCSR| Use multiplication densification                                       T (D)
 DBCSR| Multiplication size stacks                                             3 (U)
 DBCSR| Use memory pool for CPU allocation                                     F (U)
 DBCSR| Number of 3D layers                                               SINGLE (U)
 DBCSR| Use MPI memory allocation                                              F (U)
 DBCSR| Use RMA algorithm                                                      F (U)
 DBCSR| Use Communication thread                                               T (U)
 DBCSR| Communication thread load                                             83 (D)
 DBCSR| MPI: My process id                                                     0
 DBCSR| MPI: Number of processes                                              16
 DBCSR| OMP: Current number of threads                                         2
 DBCSR| OMP: Max number of threads                                             2
 DBCSR| Split modifier for TAS multiplication algorithm                  1.0E+00 (U)


  **** **** ******  **  PROGRAM STARTED AT               2026-06-19 20:04:02.051
 ***** ** ***  *** **   PROGRAM STARTED ON         ip-172-31-89-158.ec2.internal
 **    ****   ******    PROGRAM STARTED BY                             <unknown>
 ***** **    ** ** **   PROGRAM PROCESS ID                                 11282
  **** **  *******  **  PROGRAM STARTED IN /opt/cp2k_sanity/cp2k_adsorption_hete
                                           rogeneity

 CP2K| version string:                                       CP2K version 2026.1
 CP2K| source code revision number:                                      aceff1c
 CP2K| cp2kflags: omp libint fftw3 libxc parallel scalapack mpi_f08 cosma xsmm p
 CP2K|            lumed2 spglib sirius libtorch hdf5 trexio
 CP2K| is freely available from                            https://www.cp2k.org/
 CP2K| Program compiled at                                   2026-06-16 16:35:48
 CP2K| Program compiled on                                                      
 CP2K| Program compiled for                                               x86_64
 CP2K| Data directory path                  /opt/cp2k_sanity/env/share/cp2k/data
 CP2K| Input file name        cp2k_inputs/sanity/sp/single_vacancy_periodic_slab

 GLOBAL| Force Environment number                                              1
 GLOBAL| Basis set file name            /opt/cp2k_sanity/env/share/cp2k/data/BAS
 GLOBAL| Potential file name            /opt/cp2k_sanity/env/share/cp2k/data/GTH
 GLOBAL| MM Potential file name                                     MM_POTENTIAL
 GLOBAL| Coordinate file name                                      __STD_INPUT__
 GLOBAL| Method name                                                        CP2K
 GLOBAL| Project name                   single_vacancy_periodic_slab_sanity_opti
 GLOBAL| Run type                                                         ENERGY
 GLOBAL| FFT library                                                       FFTW3
 GLOBAL| Diagonalization library                                       ScaLAPACK
 GLOBAL| Cholesky decomposition library                                ScaLAPACK
 GLOBAL| DGEMM library                                                      BLAS
 GLOBAL| Orthonormality check for eigenvectors                          DISABLED
 GLOBAL| Matrix multiplication library                                     COSMA
 GLOBAL| All-to-all communication in single precision                          F
 GLOBAL| FFTs using library dependent lengths                                  F
 GLOBAL| Grid backend                                                       AUTO
 GLOBAL| Global print level                                                  LOW
 GLOBAL| MPI I/O enabled                                                       T
 GLOBAL| Total number of message passing processes                            16
 GLOBAL| Number of distributed systems (nodes)                                 1
 GLOBAL| Number of threads for this process                                    2
 GLOBAL| This output is from process                                           0
 GLOBAL| OpenMP stack size per thread (OMP_STACKSIZE)                    default
 GLOBAL| CPU model name                                            AMD EPYC 9R14
 GLOBAL| CPUID                                                              1003
 GLOBAL| Compiled for CPUID                                                 1002

 *** HINT in environment.F:960 :: The compiler target flags (x86_avx2)     ***
 *** used to build this binary cannot exploit all extensions of this CPU   ***
 *** model (x86_avx512). Consider compiler target flags as part of FCFLAGS ***
 *** and CFLAGS (ARCH file).                                               ***


 MEMORY| system memory details [Kb]
 MEMORY|                        rank 0           min           max       average
 MEMORY| MemTotal             64430560      64430560      64430560      64430560
 MEMORY| MemFree              56335820      56335820      56335820      56335820
 MEMORY| Buffers                  3172          3172          3172          3172
 MEMORY| Cached                4619648       4619648       4619648       4619648
 MEMORY| Slab                   307288        307288        307288        307288
 MEMORY| SReclaimable           120092        120092        120092        120092
 MEMORY| MemLikelyFree        61078732      61078732      61078732      61078732


 GENERATE|  Preliminary Number of Bonds generated:                             0
 GENERATE|  Achieved consistency in connectivity generation.

 *******************************************************************************
 *******************************************************************************
 **                                                                           **
 **     #####                         ##              ##                      **
 **    ##   ##            ##          ##              ##                      **
 **   ##     ##                       ##            ######                    **
 **   ##     ##  ##   ##  ##   #####  ##  ##   ####   ##    #####    #####    **
 **   ##     ##  ##   ##  ##  ##      ## ##   ##      ##   ##   ##  ##   ##   **
 **   ##  ## ##  ##   ##  ##  ##      ####     ###    ##   ######   ######    **
 **    ##  ###   ##   ##  ##  ##      ## ##      ##   ##   ##       ##        **
 **     #######   #####   ##   #####  ##  ##  ####    ##    #####   ##        **
 **           ##                                                    ##        **
 **                                                                           **
 **                                                ... make the atoms dance   **
 **                                                                           **
 **            Copyright (C) by CP2K developers group (2000-2026)             **
 **                      J. Chem. Phys. 152, 194103 (2020)                    **
 **                                                                           **
 *******************************************************************************


 TOTAL NUMBERS AND MAXIMUM NUMBERS

  Total number of            - Atomic kinds:                                   2
                             - Atoms:                                        145
                             - Shell sets:                                   145
                             - Shells:                                       725
                             - Primitive Cartesian functions:                725
                             - Cartesian basis functions:                   2030
                             - Spherical basis functions:                   1885

  Maximum angular momentum of- Orbital basis functions:                        2
                             - Local part of the GTH pseudopotential:          2
                             - Non-local part of the GTH pseudopotential:      4


 SCF PARAMETERS         Density guess:                                    ATOMIC
                        --------------------------------------------------------
                        max_scf:                                             500
                        max_scf_history:                                       0
                        max_diis:                                              4
                        --------------------------------------------------------
                        eps_scf:                                        5.00E-06
                        eps_scf_history:                                0.00E+00
                        eps_diis:                                       1.00E-01
                        eps_eigval:                                     1.00E-05
                        --------------------------------------------------------
                        level_shift [a.u.]:                             0.000000
                        added MOs                                        80   80
                        --------------------------------------------------------
                        Mixing method:                            BROYDEN_MIXING
                                                charge density mixing in g-space
                        --------------------------------------------------------
                        Smear method:                                FERMI_DIRAC
                        Electronic temperature [K]:                        500.0
                        Electronic temperature [a.u.]:                  1.58E-03
                        Accuracy threshold:                             1.00E-10
                        --------------------------------------------------------
                        Outer loop SCF in use 
                        No variables optimised in outer loop
                        eps_scf                                         1.00E-05
                        max_scf                                               20
                        No outer loop optimization
                        step_size                                       5.00E-01

 Extrapolation method: initial_guess

 Spin 1

 Number of electrons:                                                        294
 Number of occupied orbitals:                                                294
 Number of molecular orbitals:                                               374

 Spin 2

 Number of electrons:                                                        292
 Number of occupied orbitals:                                                292
 Number of molecular orbitals:                                               372

 Number of orbital functions:                                               1885
 Number of independent orbital functions:                                   1885


 SCF WAVEFUNCTION OPTIMIZATION

  Step     Update method      Time    Convergence         Total energy    Change
  ------------------------------------------------------------------------------
     1 NoMix/Diag. 0.20E+00    1.3     0.46594639      -832.3960217466 -8.32E+02
     2 Broy./Diag. 0.20E+00    1.5     0.32261017      -804.7033173997  2.77E+01
     3 Broy./Diag. 0.20E+00    1.5     0.33901556      -815.9140888608 -1.12E+01
     4 Broy./Diag. 0.20E+00    1.4     0.62967644      -834.9782981733 -1.91E+01
     5 Broy./Diag. 0.20E+00    1.4     0.26198850      -842.4668689320 -7.49E+00
     6 Broy./Diag. 0.20E+00    1.4     0.41935219      -841.4123849205  1.05E+00
     7 Broy./Diag. 0.20E+00    1.4     0.06181379      -840.0694201309  1.34E+00
     8 Broy./Diag. 0.20E+00    1.5     0.33093770      -838.5247154670  1.54E+00
     9 Broy./Diag. 0.20E+00    1.5     0.32337678      -837.7211553360  8.04E-01
    10 Broy./Diag. 0.20E+00    1.5     0.07985790      -837.8652577388 -1.44E-01
    11 Broy./Diag. 0.20E+00    1.6     0.11207785      -837.6575349731  2.08E-01
    12 Broy./Diag. 0.20E+00    1.5     0.03173084      -837.5096434410  1.48E-01
    13 Broy./Diag. 0.20E+00    1.5     0.09080481      -837.5311320719 -2.15E-02
    14 Broy./Diag. 0.20E+00    1.5     0.01958755      -837.4415328377  8.96E-02
    15 Broy./Diag. 0.20E+00    1.5     0.03015389      -837.4316091608  9.92E-03
    16 Broy./Diag. 0.20E+00    1.5     0.08248146      -837.4838760613 -5.23E-02
    17 Broy./Diag. 0.20E+00    1.6     0.00996766      -837.5624887712 -7.86E-02
    18 Broy./Diag. 0.20E+00    1.5     0.03467226      -837.5621825503  3.06E-04
    19 Broy./Diag. 0.20E+00    1.5     0.09033049      -837.5912011078 -2.90E-02
    20 Broy./Diag. 0.20E+00    1.5     0.05277811      -837.5100994817  8.11E-02
    21 Broy./Diag. 0.20E+00    1.5     0.27627479      -837.5387430885 -2.86E-02
    22 Broy./Diag. 0.20E+00    1.5     0.07916167      -837.3121319255  2.27E-01
    23 Broy./Diag. 0.20E+00    1.5     0.02596076      -837.2812593130  3.09E-02
    24 Broy./Diag. 0.20E+00    1.5     0.00309456      -837.2593809857  2.19E-02
    25 Broy./Diag. 0.20E+00    1.5     0.00597062      -837.2435336904  1.58E-02
    26 Broy./Diag. 0.20E+00    1.5     0.00485502      -837.2405595522  2.97E-03
    27 Broy./Diag. 0.20E+00    1.5     0.03606016      -837.2716067245 -3.10E-02
    28 Broy./Diag. 0.20E+00    1.5     0.07114801      -837.3530221956 -8.14E-02
    29 Broy./Diag. 0.20E+00    1.5     0.09108448      -837.4501976230 -9.72E-02
    30 Broy./Diag. 0.20E+00    1.5     0.05716660      -837.5044423662 -5.42E-02
    31 Broy./Diag. 0.20E+00    1.5     0.02631847      -837.5927096343 -8.83E-02
    32 Broy./Diag. 0.20E+00    1.5     0.02095456      -837.6172355148 -2.45E-02
    33 Broy./Diag. 0.20E+00    1.5     0.01476122      -837.5899782511  2.73E-02
    34 Broy./Diag. 0.20E+00    1.5     0.02664058      -837.5877558368  2.22E-03
    35 Broy./Diag. 0.20E+00    1.5     0.02368922      -837.6001615080 -1.24E-02
    36 Broy./Diag. 0.20E+00    1.5     0.02682872      -837.5764840799  2.37E-02
    37 Broy./Diag. 0.20E+00    1.5     0.01308173      -837.5509007821  2.56E-02
    38 Broy./Diag. 0.20E+00    1.5     0.01402288      -837.5646413454 -1.37E-02
    39 Broy./Diag. 0.20E+00    1.5     0.00411966      -837.5523277929  1.23E-02
    40 Broy./Diag. 0.20E+00    1.5     0.02847212      -837.5478693840  4.46E-03
    41 Broy./Diag. 0.20E+00    1.5     0.00650052      -837.5384659770  9.40E-03
    42 Broy./Diag. 0.20E+00    1.5     0.00685097      -837.5460136063 -7.55E-03
    43 Broy./Diag. 0.20E+00    1.6     0.02198729      -837.5441046927  1.91E-03
    44 Broy./Diag. 0.20E+00    1.6     0.04980299      -837.5656651750 -2.16E-02
    45 Broy./Diag. 0.20E+00    1.6     0.01422003      -837.4983799166  6.73E-02
    46 Broy./Diag. 0.20E+00    1.6     0.02561658      -837.5112143809 -1.28E-02
    47 Broy./Diag. 0.20E+00    1.6     0.01500122      -837.5312362474 -2.00E-02
    48 Broy./Diag. 0.20E+00    1.6     0.06142957      -837.5431665690 -1.19E-02
    49 Broy./Diag. 0.20E+00    1.6     0.02581208      -837.5806539975 -3.75E-02
    50 Broy./Diag. 0.20E+00    1.6     0.02555828      -837.5778204696  2.83E-03
    51 Broy./Diag. 0.20E+00    1.6     0.00639750      -837.5780065808 -1.86E-04
    52 Broy./Diag. 0.20E+00    1.6     0.01642995      -837.5735512133  4.46E-03
    53 Broy./Diag. 0.20E+00    1.6     0.01491450      -837.5623330712  1.12E-02
    54 Broy./Diag. 0.20E+00    1.6     0.02731799      -837.5674313960 -5.10E-03
    55 Broy./Diag. 0.20E+00    1.6     0.02131452      -837.5950303781 -2.76E-02
    56 Broy./Diag. 0.20E+00    1.6     0.00737760      -837.5667388583  2.83E-02
    57 Broy./Diag. 0.20E+00    1.7     0.01955554      -837.5617443784  4.99E-03
    58 Broy./Diag. 0.20E+00    1.6     0.01753062      -837.5666610158 -4.92E-03
    59 Broy./Diag. 0.20E+00    1.7     0.01745857      -837.5558296421  1.08E-02
    60 Broy./Diag. 0.20E+00    1.6     0.03227405      -837.5669213385 -1.11E-02
    61 Broy./Diag. 0.20E+00    1.6     0.00790785      -837.5587508477  8.17E-03
    62 Broy./Diag. 0.20E+00    1.6     0.00512941      -837.5506449991  8.11E-03
    63 Broy./Diag. 0.20E+00    1.6     0.01706923      -837.5445018793  6.14E-03
    64 Broy./Diag. 0.20E+00    1.6     0.00464078      -837.5465017304 -2.00E-03
    65 Broy./Diag. 0.20E+00    1.6     0.01246553      -837.5432631826  3.24E-03
    66 Broy./Diag. 0.20E+00    1.6     0.00337851      -837.5488253525 -5.56E-03
    67 Broy./Diag. 0.20E+00    1.6     0.00424639      -837.5450184508  3.81E-03
    68 Broy./Diag. 0.20E+00    1.6     0.01886728      -837.5429521198  2.07E-03
    69 Broy./Diag. 0.20E+00    1.6     0.00261741      -837.5588320958 -1.59E-02
    70 Broy./Diag. 0.20E+00    1.6     0.00251131      -837.5569929717  1.84E-03
    71 Broy./Diag. 0.20E+00    1.6     0.00494759      -837.5598435955 -2.85E-03
    72 Broy./Diag. 0.20E+00    1.6     0.00580700      -837.5566318947  3.21E-03
    73 Broy./Diag. 0.20E+00    1.6     0.00464293      -837.5638641121 -7.23E-03
    74 Broy./Diag. 0.20E+00    1.6     0.00183974      -837.5619831049  1.88E-03
    75 Broy./Diag. 0.20E+00    1.6     0.00253213      -837.5601933910  1.79E-03
    76 Broy./Diag. 0.20E+00    1.6     0.00155525      -837.5629178490 -2.72E-03
    77 Broy./Diag. 0.20E+00    1.6     0.00260027      -837.5642424877 -1.32E-03
    78 Broy./Diag. 0.20E+00    1.6     0.01188554      -837.5649242616 -6.82E-04
    79 Broy./Diag. 0.20E+00    1.6     0.00115887      -837.5730875095 -8.16E-03
    80 Broy./Diag. 0.20E+00    1.6     0.00220133      -837.5721082711  9.79E-04
    81 Broy./Diag. 0.20E+00    1.6     0.00131463      -837.5697186674  2.39E-03
    82 Broy./Diag. 0.20E+00    1.6     0.00093213      -837.5673606126  2.36E-03
    83 Broy./Diag. 0.20E+00    1.6     0.00319564      -837.5666901947  6.70E-04
    84 Broy./Diag. 0.20E+00    1.6     0.00108113      -837.5671787190 -4.89E-04
    85 Broy./Diag. 0.20E+00    1.6     0.00114030      -837.5667661100  4.13E-04
    86 Broy./Diag. 0.20E+00    1.6     0.00139074      -837.5659013963  8.65E-04
    87 Broy./Diag. 0.20E+00    1.6     0.00518525      -837.5651287678  7.73E-04
    88 Broy./Diag. 0.20E+00    1.6     0.00153975      -837.5629468013  2.18E-03
    89 Broy./Diag. 0.20E+00    1.6     0.00447902      -837.5632171874 -2.70E-04
    90 Broy./Diag. 0.20E+00    1.6     0.00144888      -837.5620666832  1.15E-03
    91 Broy./Diag. 0.20E+00    1.6     0.00233749      -837.5607490756  1.32E-03
    92 Broy./Diag. 0.20E+00    1.6     0.00197487      -837.5605753830  1.74E-04
    93 Broy./Diag. 0.20E+00    1.6     0.00820187      -837.5603006421  2.75E-04
    94 Broy./Diag. 0.20E+00    1.6     0.00570217      -837.5620850276 -1.78E-03
    95 Broy./Diag. 0.20E+00    1.6     0.00202998      -837.5610244069  1.06E-03
    96 Broy./Diag. 0.20E+00    1.6     0.00253423      -837.5598650036  1.16E-03
    97 Broy./Diag. 0.20E+00    1.6     0.00234855      -837.5603626253 -4.98E-04
    98 Broy./Diag. 0.20E+00    1.7     0.00388449      -837.5608708129 -5.08E-04
    99 Broy./Diag. 0.20E+00    1.6     0.00176934      -837.5640067550 -3.14E-03
   100 Broy./Diag. 0.20E+00    1.6     0.00179871      -837.5652380493 -1.23E-03
   101 Broy./Diag. 0.20E+00    1.6     0.00319047      -837.5651201140  1.18E-04
   102 Broy./Diag. 0.20E+00    1.6     0.00601018      -837.5655175161 -3.97E-04
   103 Broy./Diag. 0.20E+00    1.6     0.00701090      -837.5647208013  7.97E-04
   104 Broy./Diag. 0.20E+00    1.6     0.00541873      -837.5647902171 -6.94E-05
   105 Broy./Diag. 0.20E+00    1.6     0.00070348      -837.5654706647 -6.80E-04
   106 Broy./Diag. 0.20E+00    1.6     0.00301288      -837.5643656175  1.11E-03
   107 Broy./Diag. 0.20E+00    1.6     0.00181200      -837.5612212755  3.14E-03
   108 Broy./Diag. 0.20E+00    1.7     0.00208204      -837.5606989512  5.22E-04
   109 Broy./Diag. 0.20E+00    1.6     0.00159556      -837.5586436861  2.06E-03
   110 Broy./Diag. 0.20E+00    1.6     0.00140653      -837.5599885339 -1.34E-03
   111 Broy./Diag. 0.20E+00    1.6     0.00025833      -837.5611636579 -1.18E-03
   112 Broy./Diag. 0.20E+00    1.6     0.00115951      -837.5610290369  1.35E-04
   113 Broy./Diag. 0.20E+00    1.6     0.00269887      -837.5591426416  1.89E-03
   114 Broy./Diag. 0.20E+00    1.6     0.00265092      -837.5563969729  2.75E-03
   115 Broy./Diag. 0.20E+00    1.6     0.00154932      -837.5597177986 -3.32E-03
   116 Broy./Diag. 0.20E+00    1.7     0.00565092      -837.5589220386  7.96E-04
   117 Broy./Diag. 0.20E+00    1.7     0.00357957      -837.5654998840 -6.58E-03
   118 Broy./Diag. 0.20E+00    1.7     0.00364366      -837.5649405642  5.59E-04
   119 Broy./Diag. 0.20E+00    1.6     0.00188597      -837.5654408744 -5.00E-04
   120 Broy./Diag. 0.20E+00    1.6     0.00170053      -837.5656559994 -2.15E-04
   121 Broy./Diag. 0.20E+00    1.6     0.00026436      -837.5655431948  1.13E-04
   122 Broy./Diag. 0.20E+00    1.6     0.00022165      -837.5653869735  1.56E-04
   123 Broy./Diag. 0.20E+00    1.6     0.00010552      -837.5653122304  7.47E-05
   124 Broy./Diag. 0.20E+00    1.6     0.00019912      -837.5655370212 -2.25E-04
   125 Broy./Diag. 0.20E+00    1.6     0.00152177      -837.5656962122 -1.59E-04
   126 Broy./Diag. 0.20E+00    1.6     0.00133147      -837.5657182790 -2.21E-05
   127 Broy./Diag. 0.20E+00    1.6     0.00155326      -837.5656385830  7.97E-05
   128 Broy./Diag. 0.20E+00    1.6     0.00173175      -837.5657226723 -8.41E-05
   129 Broy./Diag. 0.20E+00    1.6     0.00178764      -837.5654282707  2.94E-04
   130 Broy./Diag. 0.20E+00    1.6     0.00188095      -837.5656366377 -2.08E-04
   131 Broy./Diag. 0.20E+00    1.6     0.00171432      -837.5656252278  1.14E-05
   132 Broy./Diag. 0.20E+00    1.6     0.00054025      -837.5660605061 -4.35E-04
   133 Broy./Diag. 0.20E+00    1.6     0.00039080      -837.5658676406  1.93E-04
   134 Broy./Diag. 0.20E+00    1.6     0.00129138      -837.5658789010 -1.13E-05
   135 Broy./Diag. 0.20E+00    1.6     0.01341221      -837.5662284876 -3.50E-04
   136 Broy./Diag. 0.20E+00    1.6     0.00845185      -837.5684534012 -2.22E-03
   137 Broy./Diag. 0.20E+00    1.6     0.00084782      -837.5683366318  1.17E-04
   138 Broy./Diag. 0.20E+00    1.6     0.01714223      -837.5686537846 -3.17E-04
   139 Broy./Diag. 0.20E+00    1.6     0.00263167      -837.5684884139  1.65E-04
   140 Broy./Diag. 0.20E+00    1.6     0.00128753      -837.5672888766  1.20E-03
   141 Broy./Diag. 0.20E+00    1.6     0.00157625      -837.5661850692  1.10E-03
   142 Broy./Diag. 0.20E+00    1.6     0.00137557      -837.5659216152  2.63E-04
   143 Broy./Diag. 0.20E+00    1.6     0.00578294      -837.5660019046 -8.03E-05
   144 Broy./Diag. 0.20E+00    1.6     0.00392964      -837.5660360048 -3.41E-05
   145 Broy./Diag. 0.20E+00    1.6     0.00394102      -837.5657599729  2.76E-04
   146 Broy./Diag. 0.20E+00    1.7     0.00167277      -837.5649746672  7.85E-04
   147 Broy./Diag. 0.20E+00    1.6     0.00320178      -837.5660547988 -1.08E-03
   148 Broy./Diag. 0.20E+00    1.6     0.00576868      -837.5663766528 -3.22E-04
   149 Broy./Diag. 0.20E+00    1.6     0.00981795      -837.5658945487  4.82E-04
   150 Broy./Diag. 0.20E+00    1.6     0.01085375      -837.5655708457  3.24E-04
   151 Broy./Diag. 0.20E+00    1.6     0.00130741      -837.5661036005 -5.33E-04
   152 Broy./Diag. 0.20E+00    1.6     0.00870689      -837.5662483312 -1.45E-04
   153 Broy./Diag. 0.20E+00    1.6     0.00139354      -837.5664574598 -2.09E-04
   154 Broy./Diag. 0.20E+00    1.6     0.00066179      -837.5659787770  4.79E-04
   155 Broy./Diag. 0.20E+00    1.6     0.00181193      -837.5656193812  3.59E-04
   156 Broy./Diag. 0.20E+00    1.6     0.00361520      -837.5652071514  4.12E-04
   157 Broy./Diag. 0.20E+00    1.6     0.00203625      -837.5652696985 -6.25E-05
   158 Broy./Diag. 0.20E+00    1.6     0.00059499      -837.5651680265  1.02E-04
   159 Broy./Diag. 0.20E+00    1.6     0.00085097      -837.5649521118  2.16E-04
   160 Broy./Diag. 0.20E+00    1.6     0.00239938      -837.5644430482  5.09E-04
   161 Broy./Diag. 0.20E+00    1.6     0.00336253      -837.5644957172 -5.27E-05
   162 Broy./Diag. 0.20E+00    1.6     0.00117853      -837.5645199742 -2.43E-05
   163 Broy./Diag. 0.20E+00    1.6     0.00229679      -837.5653527182 -8.33E-04
   164 Broy./Diag. 0.20E+00    1.6     0.00217450      -837.5657781575 -4.25E-04
   165 Broy./Diag. 0.20E+00    1.6     0.00190548      -837.5657965822 -1.84E-05
   166 Broy./Diag. 0.20E+00    1.6     0.00064359      -837.5659207783 -1.24E-04
   167 Broy./Diag. 0.20E+00    1.6     0.00187943      -837.5659689178 -4.81E-05
   168 Broy./Diag. 0.20E+00    1.6     0.00220380      -837.5657664365  2.02E-04
   169 Broy./Diag. 0.20E+00    1.6     0.00229704      -837.5659677649 -2.01E-04
   170 Broy./Diag. 0.20E+00    1.6     0.00058806      -837.5658638837  1.04E-04
   171 Broy./Diag. 0.20E+00    1.6     0.00528014      -837.5662107763 -3.47E-04
   172 Broy./Diag. 0.20E+00    1.6     0.00199119      -837.5656578034  5.53E-04
   173 Broy./Diag. 0.20E+00    1.6     0.00250541      -837.5661778497 -5.20E-04
   174 Broy./Diag. 0.20E+00    1.7     0.00340387      -837.5661994656 -2.16E-05
   175 Broy./Diag. 0.20E+00    1.6     0.01074339      -837.5669207476 -7.21E-04
   176 Broy./Diag. 0.20E+00    1.6     0.00727750      -837.5676483499 -7.28E-04
   177 Broy./Diag. 0.20E+00    1.6     0.00487485      -837.5682381727 -5.90E-04
   178 Broy./Diag. 0.20E+00    1.6     0.00421820      -837.5680582049  1.80E-04
   179 Broy./Diag. 0.20E+00    1.6     0.00044111      -837.5676104666  4.48E-04
   180 Broy./Diag. 0.20E+00    1.7     0.00120421      -837.5674285747  1.82E-04
   181 Broy./Diag. 0.20E+00    1.6     0.00187779      -837.5667463688  6.82E-04
   182 Broy./Diag. 0.20E+00    1.6     0.00838416      -837.5679601590 -1.21E-03
   183 Broy./Diag. 0.20E+00    1.6     0.00281599      -837.5678595599  1.01E-04
   184 Broy./Diag. 0.20E+00    1.6     0.00420809      -837.5682081215 -3.49E-04
   185 Broy./Diag. 0.20E+00    1.6     0.02949940      -837.5683309059 -1.23E-04
   186 Broy./Diag. 0.20E+00    1.7     0.00522174      -837.5697753990 -1.44E-03
   187 Broy./Diag. 0.20E+00    1.6     0.01071630      -837.5711652560 -1.39E-03
   188 Broy./Diag. 0.20E+00    1.6     0.01940162      -837.5710111206  1.54E-04
   189 Broy./Diag. 0.20E+00    1.6     0.00833355      -837.5671287789  3.88E-03
   190 Broy./Diag. 0.20E+00    1.6     0.00148641      -837.5681093234 -9.81E-04
   191 Broy./Diag. 0.20E+00    1.6     0.00362352      -837.5686786276 -5.69E-04
   192 Broy./Diag. 0.20E+00    1.6     0.00181889      -837.5692481064 -5.69E-04
   193 Broy./Diag. 0.20E+00    1.6     0.00359383      -837.5691126848  1.35E-04
   194 Broy./Diag. 0.20E+00    1.6     0.00260247      -837.5688831357  2.30E-04
   195 Broy./Diag. 0.20E+00    1.6     0.00181709      -837.5689980276 -1.15E-04
   196 Broy./Diag. 0.20E+00    1.7     0.01281952      -837.5691940429 -1.96E-04
   197 Broy./Diag. 0.20E+00    1.6     0.00081806      -837.5688843398  3.10E-04
   198 Broy./Diag. 0.20E+00    1.6     0.00666804      -837.5683671099  5.17E-04
   199 Broy./Diag. 0.20E+00    1.6     0.00375930      -837.5675173134  8.50E-04
   200 Broy./Diag. 0.20E+00    1.6     0.00478968      -837.5678582245 -3.41E-04
   201 Broy./Diag. 0.20E+00    1.7     0.01427958      -837.5681331289 -2.75E-04
   202 Broy./Diag. 0.20E+00    1.7     0.00558909      -837.5690942138 -9.61E-04
   203 Broy./Diag. 0.20E+00    1.6     0.01065344      -837.5692190139 -1.25E-04
   204 Broy./Diag. 0.20E+00    1.6     0.00555494      -837.5697591926 -5.40E-04
   205 Broy./Diag. 0.20E+00    1.7     0.00248596      -837.5698188898 -5.97E-05
   206 Broy./Diag. 0.20E+00    1.7     0.00041057      -837.5694260800  3.93E-04
   207 Broy./Diag. 0.20E+00    1.7     0.00918014      -837.5696435219 -2.17E-04
   208 Broy./Diag. 0.20E+00    1.6     0.00161076      -837.5689065117  7.37E-04
   209 Broy./Diag. 0.20E+00    1.7     0.00915445      -837.5686432609  2.63E-04
   210 Broy./Diag. 0.20E+00    1.7     0.00554443      -837.5678217825  8.21E-04
   211 Broy./Diag. 0.20E+00    1.7     0.00596845      -837.5671580338  6.64E-04
   212 Broy./Diag. 0.20E+00    1.7     0.00228910      -837.5665123054  6.46E-04
   213 Broy./Diag. 0.20E+00    1.7     0.00438599      -837.5663748791  1.37E-04
   214 Broy./Diag. 0.20E+00    1.7     0.00246976      -837.5673833478 -1.01E-03
   215 Broy./Diag. 0.20E+00    1.7     0.00528349      -837.5672531549  1.30E-04
   216 Broy./Diag. 0.20E+00    1.7     0.00528276      -837.5676971902 -4.44E-04
   217 Broy./Diag. 0.20E+00    1.7     0.00172997      -837.5680839589 -3.87E-04
   218 Broy./Diag. 0.20E+00    1.7     0.00134321      -837.5677186394  3.65E-04
   219 Broy./Diag. 0.20E+00    1.7     0.00518178      -837.5674939266  2.25E-04
   220 Broy./Diag. 0.20E+00    1.8     0.00243664      -837.5680042637 -5.10E-04
   221 Broy./Diag. 0.20E+00    1.7     0.01939064      -837.5687811472 -7.77E-04
   222 Broy./Diag. 0.20E+00    1.8     0.00294392      -837.5663133803  2.47E-03
   223 Broy./Diag. 0.20E+00    1.7     0.00088652      -837.5669766337 -6.63E-04
   224 Broy./Diag. 0.20E+00    1.7     0.00481992      -837.5663240225  6.53E-04
   225 Broy./Diag. 0.20E+00    1.7     0.00180067      -837.5682562259 -1.93E-03
   226 Broy./Diag. 0.20E+00    1.7     0.00099314      -837.5674872564  7.69E-04
   227 Broy./Diag. 0.20E+00    1.7     0.00294319      -837.5667283709  7.59E-04
   228 Broy./Diag. 0.20E+00    1.6     0.00057037      -837.5660151029  7.13E-04
   229 Broy./Diag. 0.20E+00    1.6     0.00452084      -837.5660203349 -5.23E-06
   230 Broy./Diag. 0.20E+00    1.7     0.00417137      -837.5652733746  7.47E-04
   231 Broy./Diag. 0.20E+00    1.7     0.01382745      -837.5651719408  1.01E-04
   232 Broy./Diag. 0.20E+00    1.7     0.02063094      -837.5645497010  6.22E-04
   233 Broy./Diag. 0.20E+00    1.7     0.00126180      -837.5625357499  2.01E-03
   234 Broy./Diag. 0.20E+00    1.8     0.03570422      -837.5624172451  1.19E-04
   235 Broy./Diag. 0.20E+00    1.7     0.01180378      -837.5663562209 -3.94E-03
   236 Broy./Diag. 0.20E+00    1.7     0.03520958      -837.5658379438  5.18E-04
   237 Broy./Diag. 0.20E+00    1.7     0.01309573      -837.5688205144 -2.98E-03
   238 Broy./Diag. 0.20E+00    1.7     0.00233929      -837.5704711812 -1.65E-03
   239 Broy./Diag. 0.20E+00    1.7     0.01379139      -837.5715949331 -1.12E-03
   240 Broy./Diag. 0.20E+00    1.7     0.00388739      -837.5699301481  1.66E-03
   241 Broy./Diag. 0.20E+00    1.7     0.01485400      -837.5684999537  1.43E-03
   242 Broy./Diag. 0.20E+00    1.7     0.00368490      -837.5665918084  1.91E-03
   243 Broy./Diag. 0.20E+00    1.7     0.00847694      -837.5666632998 -7.15E-05
   244 Broy./Diag. 0.20E+00    1.7     0.00353128      -837.5659502391  7.13E-04
   245 Broy./Diag. 0.20E+00    1.7     0.00785698      -837.5663037419 -3.54E-04
   246 Broy./Diag. 0.20E+00    1.7     0.00136360      -837.5650530062  1.25E-03
   247 Broy./Diag. 0.20E+00    1.7     0.00418974      -837.5654450369 -3.92E-04
   248 Broy./Diag. 0.20E+00    1.7     0.00316059      -837.5657946153 -3.50E-04
   249 Broy./Diag. 0.20E+00    1.7     0.00957473      -837.5654454074  3.49E-04
   250 Broy./Diag. 0.20E+00    1.7     0.00888562      -837.5665007620 -1.06E-03
   251 Broy./Diag. 0.20E+00    1.7     0.01601609      -837.5668507394 -3.50E-04
   252 Broy./Diag. 0.20E+00    1.7     0.00395929      -837.5650820694  1.77E-03
   253 Broy./Diag. 0.20E+00    1.7     0.01421312      -837.5654350197 -3.53E-04
   254 Broy./Diag. 0.20E+00    1.7     0.01264583      -837.5663627567 -9.28E-04
   255 Broy./Diag. 0.20E+00    1.8     0.01115298      -837.5675173475 -1.15E-03
   256 Broy./Diag. 0.20E+00    1.8     0.00235251      -837.5681895462 -6.72E-04
   257 Broy./Diag. 0.20E+00    1.7     0.00501927      -837.5683809931 -1.91E-04
   258 Broy./Diag. 0.20E+00    1.7     0.01135469      -837.5690813214 -7.00E-04
   259 Broy./Diag. 0.20E+00    1.7     0.04272952      -837.5686802843  4.01E-04
   260 Broy./Diag. 0.20E+00    1.7     0.00822597      -837.5722084899 -3.53E-03
   261 Broy./Diag. 0.20E+00    1.7     0.00406553      -837.5725017070 -2.93E-04
   262 Broy./Diag. 0.20E+00    1.7     0.00904029      -837.5723129476  1.89E-04
   263 Broy./Diag. 0.20E+00    1.7     0.00288156      -837.5715553915  7.58E-04
   264 Broy./Diag. 0.20E+00    1.7     0.02195513      -837.5708489654  7.06E-04
   265 Broy./Diag. 0.20E+00    1.7     0.00284995      -837.5686465997  2.20E-03
   266 Broy./Diag. 0.20E+00    1.7     0.00787927      -837.5687787363 -1.32E-04
   267 Broy./Diag. 0.20E+00    1.7     0.01644806      -837.5692910502 -5.12E-04
   268 Broy./Diag. 0.20E+00    1.7     0.00777786      -837.5669543862  2.34E-03
   269 Broy./Diag. 0.20E+00    1.8     0.00855779      -837.5663630288  5.91E-04
   270 Broy./Diag. 0.20E+00    1.7     0.01014662      -837.5671281210 -7.65E-04
   271 Broy./Diag. 0.20E+00    1.7     0.00096226      -837.5661185164  1.01E-03
   272 Broy./Diag. 0.20E+00    1.7     0.00175853      -837.5660006123  1.18E-04
   273 Broy./Diag. 0.20E+00    1.7     0.00483840      -837.5658322030  1.68E-04
   274 Broy./Diag. 0.20E+00    1.7     0.00105686      -837.5652119954  6.20E-04
   275 Broy./Diag. 0.20E+00    1.7     0.00733534      -837.5652737890 -6.18E-05
   276 Broy./Diag. 0.20E+00    1.6     0.00658782      -837.5645812164  6.93E-04
   277 Broy./Diag. 0.20E+00    1.7     0.00345152      -837.5653068484 -7.26E-04
   278 Broy./Diag. 0.20E+00    1.7     0.02734936      -837.5650424138  2.64E-04
   279 Broy./Diag. 0.20E+00    1.7     0.00232296      -837.5679828092 -2.94E-03
   280 Broy./Diag. 0.20E+00    1.7     0.04612456      -837.5686949388 -7.12E-04
   281 Broy./Diag. 0.20E+00    1.7     0.00448912      -837.5707844075 -2.09E-03
   282 Broy./Diag. 0.20E+00    1.7     0.01397450      -837.5713003927 -5.16E-04
   283 Broy./Diag. 0.20E+00    1.7     0.01201422      -837.5716493210 -3.49E-04
   284 Broy./Diag. 0.20E+00    1.7     0.00619011      -837.5720065631 -3.57E-04
   285 Broy./Diag. 0.20E+00    1.7     0.01177769      -837.5722526029 -2.46E-04
   286 Broy./Diag. 0.20E+00    1.7     0.00602481      -837.5709100045  1.34E-03
   287 Broy./Diag. 0.20E+00    1.7     0.00955050      -837.5710654961 -1.55E-04
   288 Broy./Diag. 0.20E+00    1.6     0.00942995      -837.5674921897  3.57E-03
   289 Broy./Diag. 0.20E+00    1.7     0.01419885      -837.5674995763 -7.39E-06
   290 Broy./Diag. 0.20E+00    1.7     0.01700846      -837.5674952871  4.29E-06
   291 Broy./Diag. 0.20E+00    1.7     0.01290293      -837.5662999654  1.20E-03
   292 Broy./Diag. 0.20E+00    1.7     0.01162126      -837.5627859237  3.51E-03
   293 Broy./Diag. 0.20E+00    1.7     0.01148703      -837.5621118597  6.74E-04
   294 Broy./Diag. 0.20E+00    1.7     0.00874528      -837.5624630651 -3.51E-04
   295 Broy./Diag. 0.20E+00    1.7     0.00651329      -837.5629423470 -4.79E-04
   296 Broy./Diag. 0.20E+00    1.7     0.02966940      -837.5653740881 -2.43E-03
   297 Broy./Diag. 0.20E+00    1.7     0.00264495      -837.5669784439 -1.60E-03
   298 Broy./Diag. 0.20E+00    1.7     0.00230578      -837.5659927178  9.86E-04
   299 Broy./Diag. 0.20E+00    1.7     0.00529325      -837.5672732743 -1.28E-03
   300 Broy./Diag. 0.20E+00    1.7     0.00209410      -837.5674490280 -1.76E-04
   301 Broy./Diag. 0.20E+00    1.7     0.01015877      -837.5675193286 -7.03E-05
   302 Broy./Diag. 0.20E+00    1.7     0.02408664      -837.5684856425 -9.66E-04
   303 Broy./Diag. 0.20E+00    1.7     0.01386457      -837.5681366934  3.49E-04
   304 Broy./Diag. 0.20E+00    1.7     0.01058916      -837.5642539306  3.88E-03
   305 Broy./Diag. 0.20E+00    1.7     0.00234923      -837.5565626786  7.69E-03
   306 Broy./Diag. 0.20E+00    1.7     0.00428911      -837.5557918664  7.71E-04
   307 Broy./Diag. 0.20E+00    1.7     0.00532130      -837.5531888098  2.60E-03
   308 Broy./Diag. 0.20E+00    1.7     0.00098934      -837.5494859539  3.70E-03
   309 Broy./Diag. 0.20E+00    1.7     0.00362547      -837.5491118795  3.74E-04
   310 Broy./Diag. 0.20E+00    1.7     0.00295572      -837.5555639574 -6.45E-03
   311 Broy./Diag. 0.20E+00    1.7     0.00319419      -837.5627445203 -7.18E-03
   312 Broy./Diag. 0.20E+00    1.7     0.00262195      -837.5718734433 -9.13E-03
   313 Broy./Diag. 0.20E+00    1.7     0.00027168      -837.5730630639 -1.19E-03
   314 Broy./Diag. 0.20E+00    1.7     0.00046031      -837.5715931415  1.47E-03
   315 Broy./Diag. 0.20E+00    1.7     0.00039025      -837.5708713928  7.22E-04
   316 Broy./Diag. 0.20E+00    1.7     0.00121988      -837.5689960281  1.88E-03
   317 Broy./Diag. 0.20E+00    1.7     0.00601009      -837.5702962556 -1.30E-03
   318 Broy./Diag. 0.20E+00    1.7     0.00315011      -837.5664484677  3.85E-03
   319 Broy./Diag. 0.20E+00    1.7     0.00213745      -837.5645834091  1.87E-03
   320 Broy./Diag. 0.20E+00    1.7     0.00323319      -837.5634530047  1.13E-03
   321 Broy./Diag. 0.20E+00    1.6     0.01110721      -837.5636172935 -1.64E-04
   322 Broy./Diag. 0.20E+00    1.6     0.00195555      -837.5555891203  8.03E-03
   323 Broy./Diag. 0.20E+00    1.7     0.00047458      -837.5538655349  1.72E-03
   324 Broy./Diag. 0.20E+00    1.7     0.00131879      -837.5533657896  5.00E-04
   325 Broy./Diag. 0.20E+00    1.7     0.00053840      -837.5529179004  4.48E-04
   326 Broy./Diag. 0.20E+00    1.7     0.00063406      -837.5537544680 -8.37E-04
   327 Broy./Diag. 0.20E+00    1.6     0.00011902      -837.5547747660 -1.02E-03
   328 Broy./Diag. 0.20E+00    1.7     0.00038444      -837.5573647347 -2.59E-03
   329 Broy./Diag. 0.20E+00    1.7     0.00059069      -837.5607281539 -3.36E-03
   330 Broy./Diag. 0.20E+00    1.7     0.00041566      -837.5642548465 -3.53E-03
   331 Broy./Diag. 0.20E+00    1.6     0.00040812      -837.5673206555 -3.07E-03
   332 Broy./Diag. 0.20E+00    1.6     0.00012340      -837.5687067715 -1.39E-03
   333 Broy./Diag. 0.20E+00    1.7     0.00036850      -837.5684087988  2.98E-04
   334 Broy./Diag. 0.20E+00    1.6     0.00047439      -837.5682984862  1.10E-04
   335 Broy./Diag. 0.20E+00    1.6     0.00024135      -837.5687155152 -4.17E-04
   336 Broy./Diag. 0.20E+00    1.6     0.00048309      -837.5686170459  9.85E-05
   337 Broy./Diag. 0.20E+00    1.7     0.00005646      -837.5684110340  2.06E-04
   338 Broy./Diag. 0.20E+00    1.6     0.00009787      -837.5682978588  1.13E-04
   339 Broy./Diag. 0.20E+00    1.7     0.00074031      -837.5679981886  3.00E-04
   340 Broy./Diag. 0.20E+00    1.7     0.00073822      -837.5684973852 -4.99E-04
   341 Broy./Diag. 0.20E+00    1.6     0.00005156      -837.5691080486 -6.11E-04
   342 Broy./Diag. 0.20E+00    1.6     0.00020469      -837.5690612232  4.68E-05
   343 Broy./Diag. 0.20E+00    1.6     0.00024074      -837.5688160840  2.45E-04
   344 Broy./Diag. 0.20E+00    1.6     0.00019354      -837.5690850630 -2.69E-04
   345 Broy./Diag. 0.20E+00    1.7     0.00021708      -837.5689122383  1.73E-04
   346 Broy./Diag. 0.20E+00    1.6     0.00026635      -837.5686744207  2.38E-04
   347 Broy./Diag. 0.20E+00    1.6     0.00007293      -837.5687096507 -3.52E-05
   348 Broy./Diag. 0.20E+00    1.6     0.00007135      -837.5685496239  1.60E-04
   349 Broy./Diag. 0.20E+00    1.7     0.00013958      -837.5683997571  1.50E-04
   350 Broy./Diag. 0.20E+00    1.7     0.00010290      -837.5683174389  8.23E-05
   351 Broy./Diag. 0.20E+00    1.7     0.00003637      -837.5684223641 -1.05E-04
   352 Broy./Diag. 0.20E+00    1.7     0.00014957      -837.5680751371  3.47E-04
   353 Broy./Diag. 0.20E+00    1.7     0.00008503      -837.5673995976  6.76E-04
   354 Broy./Diag. 0.20E+00    1.7     0.00012672      -837.5675415710 -1.42E-04
   355 Broy./Diag. 0.20E+00    1.7     0.00005548      -837.5679918546 -4.50E-04
   356 Broy./Diag. 0.20E+00    1.7     0.00002166      -837.5679460035  4.59E-05
   357 Broy./Diag. 0.20E+00    1.7     0.00004436      -837.5679380969  7.91E-06
   358 Broy./Diag. 0.20E+00    1.7     0.00005158      -837.5679300789  8.02E-06
   359 Broy./Diag. 0.20E+00    1.7     0.00004744      -837.5678826471  4.74E-05
   360 Broy./Diag. 0.20E+00    1.6     0.00017450      -837.5678155407  6.71E-05
   361 Broy./Diag. 0.20E+00    1.7     0.00007993      -837.5679511607 -1.36E-04
   362 Broy./Diag. 0.20E+00    1.7     0.00014241      -837.5679346787  1.65E-05
   363 Broy./Diag. 0.20E+00    1.7     0.00011986      -837.5680338022 -9.91E-05
   364 Broy./Diag. 0.20E+00    1.7     0.00006462      -837.5679733410  6.05E-05
   365 Broy./Diag. 0.20E+00    1.7     0.00005144      -837.5679560623  1.73E-05
   366 Broy./Diag. 0.20E+00    1.7     0.00003154      -837.5680234067 -6.73E-05
   367 Broy./Diag. 0.20E+00    1.7     0.00002838      -837.5680575894 -3.42E-05
   368 Broy./Diag. 0.20E+00    1.6     0.00001748      -837.5680256686  3.19E-05
   369 Broy./Diag. 0.20E+00    1.7     0.00000958      -837.5680124862  1.32E-05
   370 Broy./Diag. 0.20E+00    1.7     0.00009754      -837.5679989686  1.35E-05
   371 Broy./Diag. 0.20E+00    1.7     0.00002197      -837.5679946524  4.32E-06
   372 Broy./Diag. 0.20E+00    1.7     0.00002641      -837.5679804947  1.42E-05
   373 Broy./Diag. 0.20E+00    1.7     0.00001372      -837.5679736327  6.86E-06
   374 Broy./Diag. 0.20E+00    1.7     0.00001969      -837.5679695809  4.05E-06
   375 Broy./Diag. 0.20E+00    1.7     0.00000645      -837.5679667713  2.81E-06
   376 Broy./Diag. 0.20E+00    1.7     0.00003155      -837.5679738418 -7.07E-06
   377 Broy./Diag. 0.20E+00    1.7     0.00000981      -837.5679625482  1.13E-05
   378 Broy./Diag. 0.20E+00    1.7     0.00003502      -837.5679631885 -6.40E-07
   379 Broy./Diag. 0.20E+00    1.7     0.00000694      -837.5679549371  8.25E-06
   380 Broy./Diag. 0.20E+00    1.8     0.00000769      -837.5679472926  7.64E-06
   381 Broy./Diag. 0.20E+00    1.7     0.00000992      -837.5679431793  4.11E-06
   382 Broy./Diag. 0.20E+00    1.7     0.00001342      -837.5679531152 -9.94E-06
   383 Broy./Diag. 0.20E+00    1.6     0.00000523      -837.5679417342  1.14E-05
   384 Broy./Diag. 0.20E+00    1.6     0.00000773      -837.5679346619  7.07E-06
   385 Broy./Diag. 0.20E+00    1.7     0.00000531      -837.5679277561  6.91E-06
   386 Broy./Diag. 0.20E+00    1.6     0.00000293      -837.5679223504  5.41E-06

  *** SCF run converged in   386 steps ***


  Electronic density on regular grids:       -585.9999833505        0.0000166495
  Core density on regular grids:              585.9999999520       -0.0000000480
  Total charge density on r-space grids:        0.0000166015
  Total charge density g-space grids:           0.0000166015

  Overlap energy of the core charge distribution:               0.00002630220490
  Self energy of the core charge distribution:              -1956.27272208785394
  Core Hamiltonian energy:                                    608.64392122508184
  Hartree energy:                                             765.31749815250350
  Exchange-correlation energy:                               -254.77249150592925
  Dispersion energy:                                           -0.47989309269822
  Electronic entropic energy:                                  -0.00426134809126
  Fermi energy:                                                -0.11207427007154

  Total energy:                                              -837.56792235039700

  outer SCF iter =    1 RMS gradient =   0.29E-05 energy =       -837.5679223504
  outer SCF loop converged in   1 iterations or  386 steps


   Calculate PDOS at iteration step                                  0

              ---- PDOS: start iteration on the KS states --- 

   Calculate PDOS at iteration step                                  0

              ---- PDOS: start iteration on the KS states --- 

  Integrated spin density:                                          1.8906740346
  Integrated absolute spin density:                                 6.6867115691
  WARNING: S**2 computation does not yet treat fractional occupied orbitals

 !-----------------------------------------------------------------------------!
                     Mulliken Population Analysis

 #  Atom  Element  Kind  Atomic population (alpha,beta) Net charge  Spin moment
       1     C        1         1.984116     2.014801     0.001084    -0.030685
       2     C        1         2.023502     1.976068     0.000431     0.047434
       3     C        1         1.978207     2.021545     0.000248    -0.043339
       4     C        1         2.022637     1.977228     0.000135     0.045409
       5     C        1         1.984630     2.013912     0.001458    -0.029283
       6     C        1         2.023313     1.976280     0.000408     0.047033
       7     C        1         1.978171     2.021447     0.000383    -0.043276
       8     C        1         2.023207     1.977153    -0.000360     0.046053
       9     C        1         1.985217     2.013570     0.001213    -0.028352
      10     C        1         2.024019     1.976112    -0.000131     0.047907
      11     C        1         1.977287     2.022390     0.000323    -0.045104
      12     C        1         2.024436     1.975115     0.000448     0.049321
      13     C        1         1.984537     2.013831     0.001632    -0.029294
      14     C        1         2.025379     1.973927     0.000694     0.051452
      15     C        1         1.976075     2.023745     0.000180    -0.047670
      16     C        1         2.024718     1.974469     0.000813     0.050250
      17     C        1         1.982173     2.016561     0.001266    -0.034388
      18     C        1         2.024584     1.974651     0.000764     0.049933
      19     C        1         1.976863     2.022984     0.000153    -0.046121
      20     C        1         2.023774     1.975636     0.000590     0.048138
      21     C        1         1.983255     2.015705     0.001041    -0.032450
      22     C        1         2.023984     1.975569     0.000447     0.048416
      23     C        1         1.977776     2.021887     0.000338    -0.044111
      24     C        1         2.023039     1.976780     0.000181     0.046259
      25     C        1         1.978185     2.021554     0.000261    -0.043368
      26     C        1         2.022707     1.977021     0.000272     0.045686
      27     C        1         1.984593     2.014179     0.001228    -0.029586
      28     C        1         2.023419     1.976189     0.000392     0.047230
      29     C        1         1.978429     2.021014     0.000557    -0.042585
      30     C        1         2.022443     1.977408     0.000149     0.045036
      31     C        1         1.984984     2.013302     0.001714    -0.028317
      32     C        1         2.023398     1.976150     0.000452     0.047247
      33     C        1         1.978656     2.020854     0.000490    -0.042198
      34     C        1         2.022957     1.976856     0.000187     0.046101
      35     C        1         1.984104     2.014053     0.001843    -0.029949
      36     C        1         2.027713     1.972719    -0.000432     0.054994
      37     C        1         1.978670     2.020515     0.000815    -0.041845
      38     C        1         2.038299     1.957738     0.003963     0.080561
      39     C        1         1.977119     2.020355     0.002527    -0.043236
      40     C        1         2.026595     1.972360     0.001045     0.054235
      41     C        1         1.975917     2.023484     0.000599    -0.047567
      42     C        1         2.025655     1.973183     0.001163     0.052472
      43     C        1         1.982464     2.016193     0.001343    -0.033728
      44     C        1         2.024650     1.974626     0.000724     0.050024
      45     C        1         1.977495     2.022233     0.000272    -0.044738
      46     C        1         2.023534     1.976077     0.000389     0.047457
      47     C        1         1.983683     2.015071     0.001246    -0.031388
      48     C        1         2.023872     1.975789     0.000339     0.048082
      49     C        1         1.977987     2.021754     0.000259    -0.043768
      50     C        1         2.023563     1.975950     0.000487     0.047613
      51     C        1         1.978710     2.020917     0.000373    -0.042208
      52     C        1         2.023342     1.976268     0.000391     0.047074
      53     C        1         1.978032     2.021537     0.000432    -0.043505
      54     C        1         2.022853     1.976556     0.000591     0.046297
      55     C        1         1.979490     2.019621     0.000889    -0.040131
      56     C        1         2.022216     1.976385     0.001399     0.045832
      57     C        1         1.975695     2.022120     0.002186    -0.046425
      58     C        1         2.012113     1.980352     0.007535     0.031761
      59     C        1         1.992230     2.025760    -0.017990    -0.033529
      60     C        1         2.035968     1.971229    -0.007197     0.064739
      61     C        1         1.985672     2.040940    -0.026612    -0.055267
      62     C        1         2.350408     1.614362     0.035231     0.736046
      63     C        1         1.980719     2.048007    -0.028726    -0.067289
      64     C        1         2.036772     1.958366     0.004862     0.078406
      65     C        1         1.975030     2.023140     0.001830    -0.048109
      66     C        1         2.029920     1.969413     0.000667     0.060507
      67     C        1         1.976077     2.023430     0.000493    -0.047352
      68     C        1         2.024551     1.974670     0.000779     0.049881
      69     C        1         1.977202     2.022431     0.000367    -0.045230
      70     C        1         2.024959     1.974650     0.000392     0.050309
      71     C        1         1.977818     2.021774     0.000409    -0.043956
      72     C        1         2.023824     1.975828     0.000348     0.047996
      73     C        1         1.984756     2.013992     0.001252    -0.029236
      74     C        1         2.023489     1.976021     0.000491     0.047468
      75     C        1         1.978697     2.020934     0.000370    -0.042237
      76     C        1         2.022208     1.977582     0.000209     0.044626
      77     C        1         1.986489     2.011728     0.001783    -0.025239
      78     C        1         2.022764     1.976635     0.000600     0.046129
      79     C        1         1.979456     2.019638     0.000906    -0.040182
      80     C        1         2.020500     1.978130     0.001370     0.042371
      81     C        1         1.989479     2.004778     0.005743    -0.015299
      82     C        1         2.011967     1.980425     0.007608     0.031541
      83     C        1         1.992026     2.025601    -0.017628    -0.033575
      84     C        1         1.841642     2.104866     0.053492    -0.263224
      85     C        1         2.349363     1.615229     0.035409     0.734134
      86     C        1         1.980697     2.047963    -0.028659    -0.067266
      87     C        1         2.051600     1.951589    -0.003189     0.100012
      88     C        1         1.977876     2.020506     0.001618    -0.042630
      89     C        1         2.029858     1.969458     0.000683     0.060400
      90     C        1         1.976070     2.023432     0.000499    -0.047362
      91     C        1         2.027454     1.972203     0.000343     0.055251
      92     C        1         1.983088     2.015817     0.001095    -0.032730
      93     C        1         2.024897     1.974709     0.000394     0.050188
      94     C        1         1.977811     2.021783     0.000407    -0.043972
      95     C        1         2.023575     1.976249     0.000176     0.047327
      96     C        1         1.977993     2.021742     0.000265    -0.043750
      97     C        1         2.022698     1.977026     0.000276     0.045673
      98     C        1         1.984595     2.014183     0.001222    -0.029588
      99     C        1         2.023416     1.976187     0.000397     0.047229
     100     C        1         1.978039     2.021522     0.000439    -0.043483
     101     C        1         2.022438     1.977399     0.000163     0.045039
     102     C        1         1.984975     2.013301     0.001724    -0.028326
     103     C        1         2.022282     1.976258     0.001460     0.046024
     104     C        1         1.975631     2.022028     0.002341    -0.046397
     105     C        1         2.022793     1.976740     0.000467     0.046054
     106     C        1         1.983922     2.013950     0.002128    -0.030027
     107     C        1         2.035731     1.970395    -0.006126     0.065336
     108     C        1         1.985104     2.040572    -0.025676    -0.055468
     109     C        1         2.038106     1.957704     0.004190     0.080402
     110     C        1         1.977008     2.020160     0.002832    -0.043152
     111     C        1         2.036656     1.958292     0.005052     0.078364
     112     C        1         1.974996     2.023096     0.001907    -0.048100
     113     C        1         2.025609     1.973194     0.001198     0.052415
     114     C        1         1.982461     2.016187     0.001352    -0.033725
     115     C        1         2.024585     1.974622     0.000792     0.049963
     116     C        1         1.977205     2.022418     0.000377    -0.045213
     117     C        1         2.023519     1.976087     0.000394     0.047432
     118     C        1         1.983685     2.015069     0.001246    -0.031384
     119     C        1         2.023882     1.975764     0.000353     0.048118
     120     C        1         1.978179     2.021567     0.000254    -0.043388
     121     C        1         2.023574     1.975993     0.000433     0.047582
     122     C        1         1.978213     2.021530     0.000257    -0.043316
     123     C        1         2.023334     1.976268     0.000398     0.047067
     124     C        1         1.978416     2.021035     0.000549    -0.042620
     125     C        1         2.023401     1.976187     0.000412     0.047214
     126     C        1         1.978176     2.021421     0.000403    -0.043245
     127     C        1         2.023288     1.976225     0.000487     0.047062
     128     C        1         1.978610     2.020863     0.000527    -0.042253
     129     C        1         2.024089     1.976003    -0.000092     0.048086
     130     C        1         1.977294     2.022367     0.000339    -0.045073
     131     C        1         2.027732     1.972708    -0.000440     0.055024
     132     C        1         1.978656     2.020642     0.000702    -0.041987
     133     C        1         2.025421     1.973878     0.000701     0.051542
     134     C        1         1.976075     2.023712     0.000213    -0.047636
     135     C        1         2.026510     1.972382     0.001108     0.054128
     136     C        1         1.975900     2.023466     0.000634    -0.047566
     137     C        1         2.024628     1.974593     0.000779     0.050035
     138     C        1         1.976863     2.022977     0.000159    -0.046114
     139     C        1         2.024587     1.974685     0.000728     0.049902
     140     C        1         1.977491     2.022238     0.000271    -0.044747
     141     C        1         2.024044     1.975504     0.000451     0.048540
     142     C        1         1.977780     2.021875     0.000345    -0.044095
     143     C        1         2.023801     1.975859     0.000340     0.047942
     144     I        2         3.532950     3.510281    -0.043230     0.022669
     145     I        2         3.533643     3.511498    -0.045142     0.022145
 # Total charge and spin      293.945337   292.054663    -0.000000     1.890674

 !-----------------------------------------------------------------------------!

 Hirshfeld charge iterations: Residuals ...
   0.025   0.001
 !-----------------------------------------------------------------------------!
                           Hirshfeld Charges

  #Atom  Element  Kind  Ref Charge     Population       Spin moment  Net charge
      1       C      1       3.997    1.990   2.008           -0.018      0.003
      2       C      1       3.999    2.016   1.983            0.033      0.001
      3       C      1       3.999    1.986   2.014           -0.028      0.001
      4       C      1       4.000    2.016   1.984            0.031      0.000
      5       C      1       3.997    1.990   2.007           -0.017      0.003
      6       C      1       3.999    2.016   1.983            0.033      0.001
      7       C      1       3.999    1.985   2.014           -0.028      0.001
      8       C      1       4.001    2.017   1.985            0.032     -0.001
      9       C      1       3.996    1.990   2.006           -0.016      0.004
     10       C      1       4.000    2.017   1.983            0.034     -0.000
     11       C      1       3.999    1.985   2.014           -0.029      0.001
     12       C      1       3.999    2.017   1.982            0.034      0.001
     13       C      1       3.996    1.990   2.006           -0.016      0.004
     14       C      1       3.999    2.018   1.981            0.036      0.001
     15       C      1       4.000    1.985   2.016           -0.031     -0.000
     16       C      1       3.998    2.016   1.982            0.035      0.002
     17       C      1       3.998    1.988   2.009           -0.021      0.002
     18       C      1       3.998    2.016   1.982            0.034      0.002
     19       C      1       4.000    1.985   2.015           -0.030      0.000
     20       C      1       3.999    2.016   1.983            0.033      0.001
     21       C      1       3.997    1.989   2.008           -0.019      0.003
     22       C      1       3.999    2.016   1.983            0.034      0.001
     23       C      1       3.999    1.985   2.014           -0.029      0.001
     24       C      1       3.999    2.016   1.984            0.032      0.001
     25       C      1       3.999    1.986   2.014           -0.028      0.001
     26       C      1       4.000    2.016   1.984            0.032      0.000
     27       C      1       3.997    1.990   2.007           -0.017      0.003
     28       C      1       3.999    2.016   1.983            0.033      0.001
     29       C      1       3.999    1.986   2.013           -0.028      0.001
     30       C      1       4.000    2.016   1.984            0.031      0.000
     31       C      1       3.996    1.990   2.006           -0.016      0.004
     32       C      1       4.000    2.016   1.983            0.033      0.000
     33       C      1       3.999    1.986   2.013           -0.027      0.001
     34       C      1       3.999    2.016   1.984            0.032      0.001
     35       C      1       3.992    1.988   2.004           -0.016      0.008
     36       C      1       3.999    2.019   1.980            0.039      0.001
     37       C      1       3.998    1.987   2.011           -0.024      0.002
     38       C      1       3.988    2.025   1.964            0.061      0.012
     39       C      1       3.997    1.985   2.012           -0.027      0.003
     40       C      1       3.998    2.017   1.980            0.037      0.002
     41       C      1       4.000    1.984   2.015           -0.031      0.000
     42       C      1       3.998    2.017   1.981            0.037      0.002
     43       C      1       3.997    1.989   2.008           -0.020      0.003
     44       C      1       3.999    2.017   1.982            0.035      0.001
     45       C      1       3.999    1.985   2.014           -0.029      0.001
     46       C      1       3.999    2.016   1.983            0.033      0.001
     47       C      1       3.997    1.989   2.008           -0.018      0.003
     48       C      1       3.999    2.016   1.983            0.033      0.001
     49       C      1       3.999    1.985   2.014           -0.028      0.001
     50       C      1       3.999    2.016   1.983            0.033      0.001
     51       C      1       3.999    1.986   2.013           -0.027      0.001
     52       C      1       3.999    2.016   1.983            0.033      0.001
     53       C      1       3.999    1.986   2.014           -0.028      0.001
     54       C      1       3.999    2.016   1.983            0.032      0.001
     55       C      1       3.999    1.987   2.012           -0.026      0.001
     56       C      1       3.998    2.015   1.983            0.032      0.002
     57       C      1       3.997    1.983   2.014           -0.031      0.003
     58       C      1       3.986    2.004   1.983            0.021      0.014
     59       C      1       3.965    1.968   1.997           -0.029      0.035
     60       C      1       3.974    2.011   1.963            0.047      0.026
     61       C      1       3.970    1.980   1.990           -0.009      0.030
     62       C      1       4.024    2.337   1.687            0.649     -0.024
     63       C      1       3.980    1.979   2.001           -0.022      0.020
     64       C      1       3.991    2.024   1.967            0.057      0.009
     65       C      1       3.998    1.984   2.014           -0.029      0.002
     66       C      1       3.999    2.021   1.978            0.043      0.001
     67       C      1       3.999    1.984   2.015           -0.030      0.001
     68       C      1       3.999    2.017   1.982            0.035      0.001
     69       C      1       3.999    1.985   2.014           -0.029      0.001
     70       C      1       3.999    2.017   1.982            0.035      0.001
     71       C      1       3.999    1.985   2.014           -0.028      0.001
     72       C      1       3.999    2.016   1.983            0.033      0.001
     73       C      1       3.997    1.990   2.007           -0.017      0.003
     74       C      1       3.999    2.016   1.983            0.033      0.001
     75       C      1       3.999    1.986   2.013           -0.027      0.001
     76       C      1       4.000    2.015   1.984            0.031      0.000
     77       C      1       3.996    1.991   2.005           -0.014      0.004
     78       C      1       3.999    2.016   1.983            0.032      0.001
     79       C      1       3.999    1.987   2.012           -0.026      0.001
     80       C      1       3.999    2.014   1.984            0.030      0.001
     81       C      1       3.993    1.993   2.000           -0.006      0.007
     82       C      1       3.986    2.004   1.983            0.021      0.014
     83       C      1       3.966    1.969   1.998           -0.029      0.034
     84       C      1       3.964    1.877   2.087           -0.210      0.036
     85       C      1       4.027    2.337   1.689            0.648     -0.027
     86       C      1       3.980    1.979   2.001           -0.022      0.020
     87       C      1       3.991    2.034   1.958            0.076      0.009
     88       C      1       3.998    1.987   2.011           -0.024      0.002
     89       C      1       3.999    2.021   1.978            0.043      0.001
     90       C      1       3.999    1.984   2.015           -0.030      0.001
     91       C      1       3.999    2.019   1.980            0.039      0.001
     92       C      1       3.997    1.989   2.008           -0.019      0.003
     93       C      1       3.999    2.017   1.982            0.035      0.001
     94       C      1       3.999    1.985   2.014           -0.028      0.001
     95       C      1       3.999    2.016   1.983            0.033      0.001
     96       C      1       3.999    1.985   2.014           -0.028      0.001
     97       C      1       4.000    2.016   1.984            0.032      0.000
     98       C      1       3.997    1.990   2.007           -0.017      0.003
     99       C      1       3.999    2.016   1.983            0.033      0.001
    100       C      1       3.999    1.986   2.014           -0.028      0.001
    101       C      1       4.000    2.015   1.984            0.031      0.000
    102       C      1       3.996    1.990   2.006           -0.016      0.004
    103       C      1       3.998    2.015   1.983            0.032      0.002
    104       C      1       3.997    1.983   2.014           -0.031      0.003
    105       C      1       3.999    2.015   1.983            0.032      0.001
    106       C      1       3.990    1.987   2.003           -0.016      0.010
    107       C      1       3.971    2.009   1.962            0.048      0.029
    108       C      1       3.967    1.978   1.988           -0.010      0.033
    109       C      1       3.986    2.023   1.963            0.061      0.014
    110       C      1       3.996    1.985   2.011           -0.026      0.004
    111       C      1       3.990    2.024   1.966            0.057      0.010
    112       C      1       3.998    1.984   2.014           -0.029      0.002
    113       C      1       3.998    2.017   1.981            0.037      0.002
    114       C      1       3.997    1.989   2.008           -0.020      0.003
    115       C      1       3.999    2.017   1.982            0.035      0.001
    116       C      1       3.999    1.985   2.014           -0.029      0.001
    117       C      1       3.999    2.016   1.983            0.033      0.001
    118       C      1       3.997    1.989   2.008           -0.018      0.003
    119       C      1       3.999    2.016   1.983            0.033      0.001
    120       C      1       3.999    1.986   2.014           -0.028      0.001
    121       C      1       3.999    2.016   1.983            0.033      0.001
    122       C      1       3.999    1.986   2.014           -0.028      0.001
    123       C      1       3.999    2.016   1.983            0.033      0.001
    124       C      1       3.999    1.986   2.013           -0.028      0.001
    125       C      1       3.999    2.016   1.983            0.033      0.001
    126       C      1       3.999    1.985   2.013           -0.028      0.001
    127       C      1       4.000    2.016   1.983            0.033      0.000
    128       C      1       3.999    1.986   2.013           -0.027      0.001
    129       C      1       4.000    2.017   1.983            0.034      0.000
    130       C      1       3.999    1.985   2.014           -0.029      0.001
    131       C      1       3.998    2.019   1.979            0.039      0.002
    132       C      1       3.997    1.986   2.011           -0.024      0.003
    133       C      1       3.999    2.018   1.981            0.036      0.001
    134       C      1       4.000    1.985   2.015           -0.031      0.000
    135       C      1       3.998    2.017   1.980            0.037      0.002
    136       C      1       4.000    1.984   2.015           -0.031      0.000
    137       C      1       3.998    2.016   1.982            0.035      0.002
    138       C      1       4.000    1.985   2.015           -0.030      0.000
    139       C      1       3.999    2.017   1.982            0.035      0.001
    140       C      1       3.999    1.985   2.014           -0.029      0.001
    141       C      1       3.999    2.016   1.983            0.034      0.001
    142       C      1       3.999    1.985   2.014           -0.029      0.001
    143       C      1       3.999    2.016   1.983            0.033      0.001
    144       I      2       7.207    3.616   3.590            0.026     -0.207
    145       I      2       7.200    3.613   3.587            0.025     -0.200

  Total Charge                                                            0.076
 !-----------------------------------------------------------------------------!

 ENERGY| Total FORCE_EVAL ( QS ) energy [hartree]           -837.567922350396998

 -------------------------------------------------------------------------------
 -                                                                             -
 -                                DBCSR STATISTICS                             -
 -                                                                             -
 -------------------------------------------------------------------------------
 COUNTER                                    TOTAL       BLAS       SMM       ACC
 flops    13 x    13 x    84          89767724592     100.0%      0.0%      0.0%     
 flops    13 x    13 x    86          91905051368     100.0%      0.0%      0.0%     
 flops    13 x    13 x    96         615550111488     100.0%      0.0%      0.0%     
 flops inhomo. stacks                           0       0.0%      0.0%      0.0%
 flops total                       797.222887E+09     100.0%      0.0%      0.0%
 flops max/rank                     53.725679E+09     100.0%      0.0%      0.0%
 matmuls inhomo. stacks                         0       0.0%      0.0%      0.0%
 matmuls total                           25293808     100.0%      0.0%      0.0%
 number of processed stacks                 98816     100.0%      0.0%      0.0%
 average stack size                                   256.0       0.0       0.0
 marketing flops                   366.244314E-24
 -------------------------------------------------------------------------------
 # multiplications                            772
 max memory usage/rank               2.867818E+09
 # max total images/rank                        1
 # max 3D layers                                1
 # MPI messages exchanged                   74112
 MPI messages size (bytes):
  total size                       -23.894123E+21
  min size                         314.496000E+03
  max size                         369.408000E+03
  average size                    -322.405568E+15
 MPI breakdown and total messages size (bytes):
             size <=      128                   0                        0
       128 < size <=     8192                   0                        0
      8192 < size <=    32768                   0                        0
     32768 < size <=   131072                   0                        0
    131072 < size <=  4194304               74112              26054258880
   4194304 < size <= 16777216                   0                        0
  16777216 < size                               0                        0
 -------------------------------------------------------------------------------
 -                                                                             -
 -                      DBCSR MESSAGE PASSING PERFORMANCE                      -
 -                                                                             -
 -------------------------------------------------------------------------------
 ROUTINE             CALLS      AVE VOLUME [Bytes]
 MP_Bcast                4                     12.
 MP_Allreduce         3885                      8.
 MP_Alltoall         21652                 379809.
 MP_ISend            12352                 139297.
 MP_IRecv            12352                 134006.
 -------------------------------------------------------------------------------

 -------------------------------------------------------------------------------
 -                                                                             -
 -                                GRID STATISTICS                              -
 -                                                                             -
 -------------------------------------------------------------------------------
 LP    KERNEL             BACKEND                              COUNT     PERCENT
 4     collocate ortho    CPU                               57077082      50.06%
 4     integrate ortho    CPU                               56929596      49.93%
 0     integrate general  CPU                                   9280       0.01%
 0     collocate general  CPU                                   6960       0.01%
 -------------------------------------------------------------------------------

 -------------------------------------------------------------------------------
 -                                                                             -
 -                          OFFLOAD MEMPOOL STATISTICS                         -
 -                                                                             -
 -------------------------------------------------------------------------------
 Memory consumption                Number of allocations  Used [MiB]  Size [MiB]
 Device                                                6          16          16
 Host                                                  6          16          16
 -------------------------------------------------------------------------------

 MEMORY| Estimated peak process memory [MiB]                                1244

 -------------------------------------------------------------------------------
 -                                                                             -
 -                         MESSAGE PASSING PERFORMANCE                         -
 -                                                                             -
 -------------------------------------------------------------------------------

 ROUTINE             CALLS      AVE VOLUME [Bytes]
 MP_Group                4
 MP_Bcast             1225                  27339.
 MP_Allreduce        12035                   1036.
 MP_Sync               778
 MP_Alltoall         15079               10973598.
 MP_SendRecv         23220                  57600.
 MP_ISendRecv        23160                  57600.
 MP_Wait             94437
 MP_comm_split         774
 MP_ISend            61980                 245103.
 MP_IRecv            61980                 245105.
 -------------------------------------------------------------------------------


 -------------------------------------------------------------------------------
 -                                                                             -
 -                           R E F E R E N C E S                               -
 -                                                                             -
 -------------------------------------------------------------------------------
 
 CP2K version 2026.1, the CP2K developers group (2026).
 CP2K is freely available from https://www.cp2k.org/ .
 
 T. D. Kuehne, M. Iannuzzi, M. Del Ben, V. V. Rybkin, P. Seewald, F. Stein, T. 
 Laino, R. Z. Khaliullin, O. Schuett, F. Schiffmann, D. Golze, J. Wilhelm, S. 
 Chulkov, M. H. Bani-Hashemian, V. Weber, U. Borstnik, M. Taillefumier, A. S. 
 Jakobovits, A. Lazzaro, H. Pabst, T. Mueller, R. Schade, M. Guidon, S. 
 Andermatt, N. Holmberg, G. K. Schenter, A. Hehn, A. Bussy, F. Belleflamme, G. 
 Tabacchi, A. Gloess, M. Lass, I. Bethune, C. J. Mundy, C. Plessl, M. Watkins, 
 J. VandeVondele, M. Krack, J. Hutter.
 J. Chem. Phys. 152, 194103 (2020).
 CP2K: An electronic structure and molecular dynamics software package - 
 Quickstep: Efficient and accurate electronic structure calculations.
 https://doi.org/10.1063/5.0007045

 L. Goerigk, A. Hansen, C. Bauer, S. Ehrlich, A. Najibi, S. Grimme.
 Phys. Chem. Chem. Phys. 19, 32184-32215 (2017).
 A look at the density functional theory zoo with the advanced GMTKN55 database 
 for general main group thermochemistry, kinetics and noncovalent interactions.
 https://doi.org/10.1039/C7CP04913G

 O. Schuett, P. Messmer, J. Hutter, J. VandeVondele.
 Electronic Structure Calculations on Graphics Processing Units, 173-190 (2016).
 GPU-Accelerated Sparse Matrix-Matrix Multiplication for Linear Scaling Density 
 Functional Theory.
 https://doi.org/10.1002/9781118670712.ch8

 A. Heinecke, G. Henry, M. Hutchinson, H. Pabst.
 Proceedings of Intl. Supercomputing Conference, 981-991 (2016).
 LIBXSMM: Accelerating Small Matrix Multiplications by Runtime Code Generation.
 https://doi.org/10.1109/SC.2016.83

 J. Hutter, M. Iannuzzi, F. Schiffmann, J. VandeVondele.
 WIREs Comput Mol Sci. 4, 15-25 (2014).
 CP2K: atomistic simulations of condensed matter systems.
 https://doi.org/10.1002/wcms.1159

 U. Borstnik, J. VandeVondele, V. Weber, J. Hutter.
 Parallel Comput. 40, 47-58 (2014).
 Sparse matrix multiplication: The distributed block-compressed sparse row 
 library.
 https://doi.org/10.1016/j.parco.2014.03.012

 S. Grimme, S. Ehrlich, L. Goerigk.
 J. Comput. Chem. 32, 1456 (2011).
 Effect of the damping function in dispersion corrected density functional 
 theory.
 https://doi.org/10.1002/jcc.21759

 S. Grimme, J. Antony, S. Ehrlich, H. Krieg.
 J. Chem. Phys. 132, 154104 (2010).
 A consistent and accurate ab initio parametrization of density functional 
 dispersion correction (DFT-D) for the 94 elements H-Pu.
 https://doi.org/10.1063/1.3382344

 J. VandeVondele, J. Hutter.
 J. Chem. Phys. 127, 114105 (2007).
 Gaussian basis sets for accurate calculations on molecular systems in gas and 
 condensed phases.
 https://doi.org/10.1063/1.2770708

 J. VandeVondele, M. Krack, F. Mohamed, M. Parrinello, T. Chassaing, J. Hutter.
 Comput. Phys. Commun. 167, 103-128 (2005).
 QUICKSTEP: Fast and accurate density functional calculations using a mixed 
 Gaussian and plane waves approach.
 https://doi.org/10.1016/j.cpc.2004.12.014

 M. Krack.
 Theor. Chem. Acc. 114, 145-152 (2005).
 Pseudopotentials for H to Kr optimized for gradient-corrected 
 exchange-correlation functionals.
 https://doi.org/10.1007/s00214-005-0655-y

 M. Frigo, S. G. Johnson.
 Proc. IEEE 93, 216-231 (2005).
 The design and implementation of FFTW3.
 https://doi.org/10.1109/JPROC.2004.840301

 C. Hartwigsen, S. Goedecker, J. Hutter.
 Phys. Rev. B 58, 3641-3662 (1998).
 Relativistic separable dual-space Gaussian pseudopotentials from H to Rn.
 https://doi.org/10.1103/PhysRevB.58.3641

 G. Lippert, J. Hutter, M. Parrinello.
 Mol. Phys. 92, 477-487 (1997).
 A hybrid Gaussian and plane wave density functional scheme.
 https://doi.org/10.1080/002689797170220

 S. Goedecker, M. Teter, J. Hutter.
 Phys. Rev. B 54, 1703-1710 (1996).
 Separable dual-space Gaussian pseudopotentials.
 https://doi.org/10.1103/PhysRevB.54.1703

 J. P. Perdew, K. Burke, M. Ernzerhof.
 Phys. Rev. Lett. 77, 3865-3868 (1996).
 Generalized gradient approximation made simple.
 https://doi.org/10.1103/PhysRevLett.77.3865


 -------------------------------------------------------------------------------
 -                                                                             -
 -                                T I M I N G                                  -
 -                                                                             -
 -------------------------------------------------------------------------------
 SUBROUTINE                       CALLS  ASD         SELF TIME        TOTAL TIME
                                MAXIMUM       AVERAGE  MAXIMUM  AVERAGE  MAXIMUM
 CP2K                                 1  1.0    0.016    0.019  635.429  635.431
 qs_energies                          1  2.0    0.000    0.000  635.245  635.247
 scf_env_do_scf                       1  3.0    0.001    0.001  633.889  633.892
 scf_env_do_scf_inner_loop          386  4.0    0.011    0.032  633.889  633.892
 qs_scf_new_mos                     386  5.0    0.008    0.008  370.313  370.379
 eigensolver                        772  6.0    0.051    0.067  360.238  360.516
 cp_fm_syevd                        774  7.0    0.006    0.010  303.734  304.137
 cp_fm_redistribute_end             774  8.0  152.151  301.934  152.980  303.046
 cp_fm_syevd_base                   774  8.0  149.331  298.874  149.331  298.874
 qs_ks_update_qs_env                386  5.0    0.003    0.003  143.307  143.382
 rebuild_ks_matrix                  386  6.0    0.001    0.001  143.035  143.110
 qs_ks_build_kohn_sham_matrix       386  7.0    0.046    0.053  143.034  143.109
 fft_wrap_pw1pw2                  13519 10.1    0.195    0.233  113.701  118.553
 fft_wrap_pw1pw2_80                8881 11.4    3.560    4.863  107.431  113.898
 fft3d_ps                         13519 12.1   47.089   61.385   89.770   99.613
 qs_vxc_create                      386  8.0    0.007    0.010   85.584   86.958
 xc_vxc_pw_create                   386  9.0    1.087    1.326   85.577   86.953
 xc_pw_derive                      4632 11.0    0.035    0.042   61.376   64.822
 mp_alltoall_z22v                 13519 14.1   33.530   63.595   33.530   63.595
 qs_rho_update_rho_low              387  5.0    0.002    0.002   61.226   61.311
 calculate_rho_elec                 774  6.0    0.670    0.716   61.223   61.309
 gspace_mixing                      385  5.0    0.673    0.718   58.623   58.623
 cp_fm_cholesky_restore            2316  7.0   54.875   56.997   54.875   56.997
 density_rs2pw                      774  7.0    0.027    0.033   35.851   48.748
 sum_up_and_integrate               386  8.0    0.011    0.014   47.646   47.732
 integrate_v_rspace                 772  9.0    0.024    0.029   47.281   47.336
 broyden_mixing                     385  6.0   35.014   44.953   45.267   45.854
 xc_pw_divergence                   772 10.0    0.016    0.021   41.349   42.866
 xc_rho_set_and_dset_create         386 10.0    1.005    1.245   41.650   42.773
 x_to_yz                           7334 13.3    5.498    7.549   22.497   33.972
 yz_to_x                           6185 12.9    3.427    4.674   19.957   33.702
 grid_collocate_task_list           774  7.0   21.412   27.875   21.412   27.875
 grid_integrate_task_list           772 10.0   18.761   26.961   18.761   26.961
 transfer_rs2pw                    3099  8.0    0.024    0.029   14.030   26.445
 mp_waitany                       61980 11.5   12.366   25.365   12.366   25.365
 transfer_rs2pw_80                  777  9.0    1.332    1.643   10.536   22.936
 mp_alltoall_d11v                 10828  9.3   10.867   22.930   10.867   22.930
 rs_gather_matrices                 772 10.0    0.316    0.514    8.673   20.828
 potential_pw2rs                    772 10.0    0.089    0.133   19.819   20.042
 pw_gather_p                       6185 11.9   10.719   17.125   10.719   17.125
 mp_sum_dm                         1515  7.5    6.798   14.120    6.798   14.120
 mp_sum_d                          6984  7.4    6.694   13.560    6.694   13.560
 -------------------------------------------------------------------------------

 The number of warnings for this run is : 0
 
 -------------------------------------------------------------------------------
  **** **** ******  **  PROGRAM ENDED AT                 2026-06-19 20:14:37.811
 ***** ** ***  *** **   PROGRAM RAN ON             ip-172-31-89-158.ec2.internal
 **    ****   ******    PROGRAM RAN BY                                 <unknown>
 ***** **    ** ** **   PROGRAM PROCESS ID                                 11282
  **** **  *******  **  PROGRAM STOPPED IN /opt/cp2k_sanity/cp2k_adsorption_hete
                                           rogeneity
