 DBCSR| CPU Multiplication driver                                           BLAS (U)
 DBCSR| Multrec recursion limit                                              512 (U)
 DBCSR| Multiplication stack size                                           1000 (D)
 DBCSR| Maximum elements for images                                    UNLIMITED (U)
 DBCSR| Multiplicative factor virtual images                                   1 (U)
 DBCSR| Use multiplication densification                                       T (D)
 DBCSR| Multiplication size stacks                                             3 (U)
 DBCSR| Use memory pool for CPU allocation                                     F (U)
 DBCSR| Number of 3D layers                                               SINGLE (U)
 DBCSR| Use MPI memory allocation                                              F (U)
 DBCSR| Use RMA algorithm                                                      F (U)
 DBCSR| Use Communication thread                                               T (U)
 DBCSR| Communication thread load                                             83 (D)
 DBCSR| MPI: My process id                                                     0
 DBCSR| MPI: Number of processes                                              16
 DBCSR| OMP: Current number of threads                                         2
 DBCSR| OMP: Max number of threads                                             2
 DBCSR| Split modifier for TAS multiplication algorithm                  1.0E+00 (U)


  **** **** ******  **  PROGRAM STARTED AT               2026-06-19 20:02:37.554
 ***** ** ***  *** **   PROGRAM STARTED ON         ip-172-31-89-158.ec2.internal
 **    ****   ******    PROGRAM STARTED BY                             <unknown>
 ***** **    ** ** **   PROGRAM PROCESS ID                                 11175
  **** **  *******  **  PROGRAM STARTED IN /opt/cp2k_sanity/cp2k_adsorption_hete
                                           rogeneity

 CP2K| version string:                                       CP2K version 2026.1
 CP2K| source code revision number:                                      aceff1c
 CP2K| cp2kflags: omp libint fftw3 libxc parallel scalapack mpi_f08 cosma xsmm p
 CP2K|            lumed2 spglib sirius libtorch hdf5 trexio
 CP2K| is freely available from                            https://www.cp2k.org/
 CP2K| Program compiled at                                   2026-06-16 16:35:48
 CP2K| Program compiled on                                                      
 CP2K| Program compiled for                                               x86_64
 CP2K| Data directory path                  /opt/cp2k_sanity/env/share/cp2k/data
 CP2K| Input file name        cp2k_inputs/sanity/sp/single_vacancy_periodic_slab

 GLOBAL| Force Environment number                                              1
 GLOBAL| Basis set file name            /opt/cp2k_sanity/env/share/cp2k/data/BAS
 GLOBAL| Potential file name            /opt/cp2k_sanity/env/share/cp2k/data/GTH
 GLOBAL| MM Potential file name                                     MM_POTENTIAL
 GLOBAL| Coordinate file name                                      __STD_INPUT__
 GLOBAL| Method name                                                        CP2K
 GLOBAL| Project name                   single_vacancy_periodic_slab_sanity_bare
 GLOBAL| Run type                                                         ENERGY
 GLOBAL| FFT library                                                       FFTW3
 GLOBAL| Diagonalization library                                       ScaLAPACK
 GLOBAL| Cholesky decomposition library                                ScaLAPACK
 GLOBAL| DGEMM library                                                      BLAS
 GLOBAL| Orthonormality check for eigenvectors                          DISABLED
 GLOBAL| Matrix multiplication library                                     COSMA
 GLOBAL| All-to-all communication in single precision                          F
 GLOBAL| FFTs using library dependent lengths                                  F
 GLOBAL| Grid backend                                                       AUTO
 GLOBAL| Global print level                                                  LOW
 GLOBAL| MPI I/O enabled                                                       T
 GLOBAL| Total number of message passing processes                            16
 GLOBAL| Number of distributed systems (nodes)                                 1
 GLOBAL| Number of threads for this process                                    2
 GLOBAL| This output is from process                                           0
 GLOBAL| OpenMP stack size per thread (OMP_STACKSIZE)                    default
 GLOBAL| CPU model name                                            AMD EPYC 9R14
 GLOBAL| CPUID                                                              1003
 GLOBAL| Compiled for CPUID                                                 1002

 *** HINT in environment.F:960 :: The compiler target flags (x86_avx2)     ***
 *** used to build this binary cannot exploit all extensions of this CPU   ***
 *** model (x86_avx512). Consider compiler target flags as part of FCFLAGS ***
 *** and CFLAGS (ARCH file).                                               ***


 MEMORY| system memory details [Kb]
 MEMORY|                        rank 0           min           max       average
 MEMORY| MemTotal             64430560      64430560      64430560      64430560
 MEMORY| MemFree              56354104      56354104      56354104      56354104
 MEMORY| Buffers                  3172          3172          3172          3172
 MEMORY| Cached                4597168       4597168       4597168       4597168
 MEMORY| Slab                   307584        307584        307584        307584
 MEMORY| SReclaimable           119652        119652        119652        119652
 MEMORY| MemLikelyFree        61074096      61074096      61074096      61074096


 GENERATE|  Preliminary Number of Bonds generated:                             0
 GENERATE|  Achieved consistency in connectivity generation.

 *******************************************************************************
 *******************************************************************************
 **                                                                           **
 **     #####                         ##              ##                      **
 **    ##   ##            ##          ##              ##                      **
 **   ##     ##                       ##            ######                    **
 **   ##     ##  ##   ##  ##   #####  ##  ##   ####   ##    #####    #####    **
 **   ##     ##  ##   ##  ##  ##      ## ##   ##      ##   ##   ##  ##   ##   **
 **   ##  ## ##  ##   ##  ##  ##      ####     ###    ##   ######   ######    **
 **    ##  ###   ##   ##  ##  ##      ## ##      ##   ##   ##       ##        **
 **     #######   #####   ##   #####  ##  ##  ####    ##    #####   ##        **
 **           ##                                                    ##        **
 **                                                                           **
 **                                                ... make the atoms dance   **
 **                                                                           **
 **            Copyright (C) by CP2K developers group (2000-2026)             **
 **                      J. Chem. Phys. 152, 194103 (2020)                    **
 **                                                                           **
 *******************************************************************************


 TOTAL NUMBERS AND MAXIMUM NUMBERS

  Total number of            - Atomic kinds:                                   3
                             - Atoms:                                        143
                             - Shell sets:                                   143
                             - Shells:                                       715
                             - Primitive Cartesian functions:                715
                             - Cartesian basis functions:                   2002
                             - Spherical basis functions:                   1859

  Maximum angular momentum of- Orbital basis functions:                        2
                             - Local part of the GTH pseudopotential:          2
                             - Non-local part of the GTH pseudopotential:      0


 SCF PARAMETERS         Density guess:                                    ATOMIC
                        --------------------------------------------------------
                        max_scf:                                             500
                        max_scf_history:                                       0
                        max_diis:                                              4
                        --------------------------------------------------------
                        eps_scf:                                        5.00E-06
                        eps_scf_history:                                0.00E+00
                        eps_diis:                                       1.00E-01
                        eps_eigval:                                     1.00E-05
                        --------------------------------------------------------
                        level_shift [a.u.]:                             0.000000
                        added MOs                                        80   80
                        --------------------------------------------------------
                        Mixing method:                            BROYDEN_MIXING
                                                charge density mixing in g-space
                        --------------------------------------------------------
                        Smear method:                                FERMI_DIRAC
                        Electronic temperature [K]:                        500.0
                        Electronic temperature [a.u.]:                  1.58E-03
                        Accuracy threshold:                             1.00E-10
                        --------------------------------------------------------
                        Outer loop SCF in use 
                        No variables optimised in outer loop
                        eps_scf                                         1.00E-05
                        max_scf                                               20
                        No outer loop optimization
                        step_size                                       5.00E-01

 Extrapolation method: initial_guess

 Spin 1

 Number of electrons:                                                        287
 Number of occupied orbitals:                                                287
 Number of molecular orbitals:                                               367

 Spin 2

 Number of electrons:                                                        285
 Number of occupied orbitals:                                                285
 Number of molecular orbitals:                                               365

 Number of orbital functions:                                               1859
 Number of independent orbital functions:                                   1859


 SCF WAVEFUNCTION OPTIMIZATION

  Step     Update method      Time    Convergence         Total energy    Change
  ------------------------------------------------------------------------------
     1 NoMix/Diag. 0.20E+00    1.2     0.49258716      -809.4733244559 -8.09E+02
     2 Broy./Diag. 0.20E+00    1.4     0.36514339      -781.7764180518  2.77E+01
     3 Broy./Diag. 0.20E+00    1.4     0.34332152      -794.7248506585 -1.29E+01
     4 Broy./Diag. 0.20E+00    1.4     0.03784791      -812.8719386583 -1.81E+01
     5 Broy./Diag. 0.20E+00    1.4     0.26483915      -818.4099313454 -5.54E+00
     6 Broy./Diag. 0.20E+00    1.5     0.04717552      -817.6391927899  7.71E-01
     7 Broy./Diag. 0.20E+00    1.4     0.06346007      -815.8022893015  1.84E+00
     8 Broy./Diag. 0.20E+00    1.4     0.05079374      -814.9370028589  8.65E-01
     9 Broy./Diag. 0.20E+00    1.4     0.03034310      -814.6876881808  2.49E-01
    10 Broy./Diag. 0.20E+00    1.5     0.01162750      -814.5903955733  9.73E-02
    11 Broy./Diag. 0.20E+00    1.5     0.00727974      -814.5898087930  5.87E-04
    12 Broy./Diag. 0.20E+00    1.5     0.00682976      -814.6028794311 -1.31E-02
    13 Broy./Diag. 0.20E+00    1.5     0.00916650      -814.6209356251 -1.81E-02
    14 Broy./Diag. 0.20E+00    1.5     0.00367027      -814.6285826901 -7.65E-03
    15 Broy./Diag. 0.20E+00    1.5     0.00940791      -814.6390961289 -1.05E-02
    16 Broy./Diag. 0.20E+00    1.5     0.00133361      -814.6281947405  1.09E-02
    17 Broy./Diag. 0.20E+00    1.5     0.00541804      -814.6241218600  4.07E-03
    18 Broy./Diag. 0.20E+00    1.5     0.00172693      -814.6267484118 -2.63E-03
    19 Broy./Diag. 0.20E+00    1.5     0.00358091      -814.6250194050  1.73E-03
    20 Broy./Diag. 0.20E+00    1.5     0.00061295      -814.6222830933  2.74E-03
    21 Broy./Diag. 0.20E+00    1.5     0.00298488      -814.6186697816  3.61E-03
    22 Broy./Diag. 0.20E+00    1.5     0.00087980      -814.6199135330 -1.24E-03
    23 Broy./Diag. 0.20E+00    1.5     0.00029293      -814.6240867659 -4.17E-03
    24 Broy./Diag. 0.20E+00    1.5     0.00117013      -814.6301883684 -6.10E-03
    25 Broy./Diag. 0.20E+00    1.5     0.00038496      -814.6308905737 -7.02E-04
    26 Broy./Diag. 0.20E+00    1.5     0.00047596      -814.6290504673  1.84E-03
    27 Broy./Diag. 0.20E+00    1.5     0.00030666      -814.6291379042 -8.74E-05
    28 Broy./Diag. 0.20E+00    1.5     0.00018309      -814.6303194023 -1.18E-03
    29 Broy./Diag. 0.20E+00    1.5     0.00009535      -814.6350583016 -4.74E-03
    30 Broy./Diag. 0.20E+00    1.5     0.00005298      -814.6395929460 -4.53E-03
    31 Broy./Diag. 0.20E+00    1.5     0.00006049      -814.6405243416 -9.31E-04
    32 Broy./Diag. 0.20E+00    1.5     0.00008746      -814.6395445130  9.80E-04
    33 Broy./Diag. 0.20E+00    1.5     0.00015486      -814.6381301051  1.41E-03
    34 Broy./Diag. 0.20E+00    1.5     0.00004997      -814.6373470885  7.83E-04
    35 Broy./Diag. 0.20E+00    1.5     0.00023813      -814.6370455410  3.02E-04
    36 Broy./Diag. 0.20E+00    1.5     0.00011481      -814.6372963379 -2.51E-04
    37 Broy./Diag. 0.20E+00    1.5     0.00004954      -814.6374561036 -1.60E-04
    38 Broy./Diag. 0.20E+00    1.6     0.00006903      -814.6373744913  8.16E-05
    39 Broy./Diag. 0.20E+00    1.5     0.00008816      -814.6374027489 -2.83E-05
    40 Broy./Diag. 0.20E+00    1.5     0.00013362      -814.6374787071 -7.60E-05
    41 Broy./Diag. 0.20E+00    1.5     0.00001329      -814.6376329363 -1.54E-04
    42 Broy./Diag. 0.20E+00    1.5     0.00008151      -814.6376724350 -3.95E-05
    43 Broy./Diag. 0.20E+00    1.6     0.00001217      -814.6376812432 -8.81E-06
    44 Broy./Diag. 0.20E+00    1.6     0.00003333      -814.6377072996 -2.61E-05
    45 Broy./Diag. 0.20E+00    1.7     0.00003153      -814.6377180367 -1.07E-05
    46 Broy./Diag. 0.20E+00    1.7     0.00000712      -814.6376429939  7.50E-05
    47 Broy./Diag. 0.20E+00    1.6     0.00001483      -814.6376191935  2.38E-05
    48 Broy./Diag. 0.20E+00    1.6     0.00001508      -814.6376459213 -2.67E-05
    49 Broy./Diag. 0.20E+00    1.7     0.00001313      -814.6376000223  4.59E-05
    50 Broy./Diag. 0.20E+00    1.7     0.00001057      -814.6375613299  3.87E-05
    51 Broy./Diag. 0.20E+00    1.7     0.00000583      -814.6375251511  3.62E-05
    52 Broy./Diag. 0.20E+00    1.7     0.00000819      -814.6374909132  3.42E-05
    53 Broy./Diag. 0.20E+00    1.7     0.00000884      -814.6374722512  1.87E-05
    54 Broy./Diag. 0.20E+00    1.7     0.00000170      -814.6374875691 -1.53E-05

  *** SCF run converged in    54 steps ***


  Electronic density on regular grids:       -571.9999833490        0.0000166510
  Core density on regular grids:              571.9999999551       -0.0000000449
  Total charge density on r-space grids:        0.0000166061
  Total charge density g-space grids:           0.0000166061

  Overlap energy of the core charge distribution:               0.00002630182869
  Self energy of the core charge distribution:              -1906.90613352742525
  Core Hamiltonian energy:                                    598.81939234250012
  Hartree energy:                                             744.22807497043436
  Exchange-correlation energy:                               -250.30965012352539
  Dispersion energy:                                           -0.46554545157986
  Electronic entropic energy:                                  -0.00365225888561
  Fermi energy:                                                -0.11252635477589

  Total energy:                                              -814.63748756914117

  outer SCF iter =    1 RMS gradient =   0.17E-05 energy =       -814.6374875691
  outer SCF loop converged in   1 iterations or   54 steps


   Calculate PDOS at iteration step                                  0

              ---- PDOS: start iteration on the KS states --- 

   Calculate PDOS at iteration step                                  0

              ---- PDOS: start iteration on the KS states --- 

  Integrated spin density:                                          1.8672945763
  Integrated absolute spin density:                                 6.7033500955
  WARNING: S**2 computation does not yet treat fractional occupied orbitals

 !-----------------------------------------------------------------------------!
                     Mulliken Population Analysis

 #  Atom  Element  Kind  Atomic population (alpha,beta) Net charge  Spin moment
       1     C        1         1.984077     2.014949     0.000974    -0.030873
       2     C        1         2.024132     1.975747     0.000122     0.048385
       3     C        1         1.978046     2.022006    -0.000052    -0.043960
       4     C        1         2.023066     1.977147    -0.000213     0.045919
       5     C        1         1.984620     2.014077     0.001303    -0.029456
       6     C        1         2.024037     1.975932     0.000030     0.048105
       7     C        1         1.978046     2.021944     0.000011    -0.043898
       8     C        1         2.023607     1.977174    -0.000782     0.046433
       9     C        1         1.985219     2.013632     0.001149    -0.028413
      10     C        1         2.024520     1.975803    -0.000323     0.048716
      11     C        1         1.977001     2.022711     0.000288    -0.045710
      12     C        1         2.024763     1.974833     0.000404     0.049931
      13     C        1         1.984377     2.013778     0.001845    -0.029401
      14     C        1         2.025821     1.973502     0.000678     0.052319
      15     C        1         1.975858     2.024072     0.000070    -0.048215
      16     C        1         2.025176     1.974300     0.000524     0.050876
      17     C        1         1.982169     2.016675     0.001156    -0.034505
      18     C        1         2.025215     1.974400     0.000384     0.050815
      19     C        1         1.976695     2.023493    -0.000188    -0.046798
      20     C        1         2.024268     1.975511     0.000221     0.048757
      21     C        1         1.983223     2.015858     0.000919    -0.032635
      22     C        1         2.024601     1.975277     0.000122     0.049325
      23     C        1         1.977600     2.022345     0.000055    -0.044745
      24     C        1         2.023476     1.976657    -0.000133     0.046819
      25     C        1         1.978013     2.022018    -0.000031    -0.044005
      26     C        1         2.023140     1.976918    -0.000058     0.046222
      27     C        1         1.984574     2.014335     0.001090    -0.029761
      28     C        1         2.024015     1.975940     0.000045     0.048074
      29     C        1         1.978288     2.021522     0.000190    -0.043234
      30     C        1         2.022925     1.977406    -0.000331     0.045519
      31     C        1         1.985071     2.013532     0.001397    -0.028461
      32     C        1         2.024061     1.975947    -0.000008     0.048115
      33     C        1         1.978542     2.021368     0.000090    -0.042825
      34     C        1         2.023511     1.977066    -0.000577     0.046444
      35     C        1         1.984075     2.014151     0.001774    -0.030076
      36     C        1         2.028019     1.972151    -0.000171     0.055868
      37     C        1         1.978142     2.020678     0.001181    -0.042536
      38     C        1         2.038838     1.957383     0.003779     0.081455
      39     C        1         1.977340     2.020496     0.002164    -0.043156
      40     C        1         2.027211     1.972159     0.000630     0.055051
      41     C        1         1.975800     2.024009     0.000191    -0.048209
      42     C        1         2.026247     1.973153     0.000601     0.053094
      43     C        1         1.982512     2.016373     0.001115    -0.033861
      44     C        1         2.025249     1.974421     0.000330     0.050828
      45     C        1         1.977330     2.022721    -0.000051    -0.045390
      46     C        1         2.024003     1.975956     0.000041     0.048047
      47     C        1         1.983653     2.015220     0.001127    -0.031567
      48     C        1         2.024431     1.975544     0.000025     0.048886
      49     C        1         1.977819     2.022211    -0.000030    -0.044392
      50     C        1         2.024138     1.975709     0.000153     0.048429
      51     C        1         1.978548     2.021397     0.000054    -0.042849
      52     C        1         2.024025     1.975966     0.000009     0.048059
      53     C        1         1.977917     2.022051     0.000032    -0.044133
      54     C        1         2.023558     1.976405     0.000036     0.047153
      55     C        1         1.979499     2.020307     0.000194    -0.040808
      56     C        1         2.023180     1.976238     0.000582     0.046942
      57     C        1         1.975995     2.023060     0.000945    -0.047065
      58     C        1         2.014099     1.981240     0.004661     0.032859
      59     C        2         1.993864     2.027829    -0.021693    -0.033964
      60     C        1         2.036451     1.970957    -0.007408     0.065493
      61     C        3         1.985341     2.041024    -0.026365    -0.055683
      62     C        2         2.352086     1.616861     0.031053     0.735226
      63     C        3         1.982400     2.049972    -0.032372    -0.067573
      64     C        1         2.037814     1.958766     0.003420     0.079048
      65     C        1         1.975140     2.023855     0.001005    -0.048715
      66     C        1         2.030609     1.969605    -0.000214     0.061004
      67     C        1         1.976046     2.023993    -0.000039    -0.047947
      68     C        1         2.025166     1.974485     0.000349     0.050681
      69     C        1         1.977058     2.022930     0.000012    -0.045873
      70     C        1         2.025510     1.974463     0.000027     0.051046
      71     C        1         1.977652     2.022245     0.000103    -0.044593
      72     C        1         2.024430     1.975538     0.000033     0.048892
      73     C        1         1.984725     2.014128     0.001147    -0.029404
      74     C        1         2.024136     1.975707     0.000157     0.048429
      75     C        1         1.978546     2.021395     0.000059    -0.042849
      76     C        1         2.022680     1.977525    -0.000205     0.045156
      77     C        1         1.986519     2.011914     0.001567    -0.025395
      78     C        1         2.023556     1.976403     0.000041     0.047153
      79     C        1         1.979497     2.020304     0.000199    -0.040808
      80     C        1         2.021315     1.978440     0.000244     0.042875
      81     C        1         1.990251     2.005701     0.004048    -0.015451
      82     C        1         2.014095     1.981238     0.004667     0.032857
      83     C        1         1.993859     2.027814    -0.021673    -0.033955
      84     C        3         1.843948     2.106071     0.049981    -0.262122
      85     C        2         2.352030     1.616919     0.031051     0.735110
      86     C        1         1.982393     2.049969    -0.032362    -0.067576
      87     C        1         2.052929     1.953108    -0.006037     0.099821
      88     C        1         1.978390     2.020887     0.000723    -0.042498
      89     C        1         2.030606     1.969604    -0.000210     0.061003
      90     C        1         1.976045     2.023991    -0.000035    -0.047946
      91     C        1         2.027975     1.972220    -0.000196     0.055755
      92     C        1         1.983113     2.015970     0.000917    -0.032858
      93     C        1         2.025507     1.974462     0.000032     0.051045
      94     C        1         1.977650     2.022243     0.000107    -0.044593
      95     C        1         2.024028     1.976126    -0.000153     0.047902
      96     C        1         1.977821     2.022213    -0.000034    -0.044392
      97     C        1         2.023140     1.976918    -0.000058     0.046222
      98     C        1         1.984575     2.014335     0.001090    -0.029761
      99     C        1         2.024028     1.975968     0.000004     0.048060
     100     C        1         1.977920     2.022053     0.000027    -0.044133
     101     C        1         2.022925     1.977406    -0.000331     0.045519
     102     C        1         1.985071     2.013531     0.001397    -0.028460
     103     C        1         2.023182     1.976241     0.000577     0.046941
     104     C        1         1.975998     2.023060     0.000942    -0.047062
     105     C        1         2.023510     1.977067    -0.000577     0.046442
     106     C        1         1.984074     2.014151     0.001775    -0.030076
     107     C        1         2.036447     1.970959    -0.007406     0.065488
     108     C        1         1.985337     2.041030    -0.026367    -0.055693
     109     C        1         2.038833     1.957384     0.003783     0.081449
     110     C        1         1.977341     2.020495     0.002165    -0.043154
     111     C        1         2.037812     1.958771     0.003417     0.079041
     112     C        1         1.975143     2.023857     0.001000    -0.048714
     113     C        1         2.026246     1.973154     0.000600     0.053092
     114     C        1         1.982512     2.016373     0.001115    -0.033861
     115     C        1         2.025168     1.974487     0.000344     0.050681
     116     C        1         1.977060     2.022933     0.000008    -0.045873
     117     C        1         2.024003     1.975956     0.000041     0.048047
     118     C        1         1.983653     2.015220     0.001127    -0.031567
     119     C        1         2.024432     1.975539     0.000028     0.048893
     120     C        1         1.978011     2.022016    -0.000027    -0.044005
     121     C        1         2.024134     1.975749     0.000117     0.048386
     122     C        1         1.978048     2.022008    -0.000057    -0.043960
     123     C        1         2.024012     1.975938     0.000049     0.048074
     124     C        1         1.978286     2.021520     0.000194    -0.043233
     125     C        1         2.024040     1.975934     0.000026     0.048105
     126     C        1         1.978048     2.021946     0.000006    -0.043898
     127     C        1         2.024059     1.975945    -0.000004     0.048114
     128     C        1         1.978541     2.021365     0.000094    -0.042824
     129     C        1         2.024522     1.975806    -0.000327     0.048716
     130     C        1         1.977004     2.022713     0.000283    -0.045710
     131     C        1         2.028016     1.972150    -0.000165     0.055866
     132     C        1         1.978143     2.020678     0.001179    -0.042534
     133     C        1         2.025822     1.973503     0.000676     0.052319
     134     C        1         1.975860     2.024075     0.000065    -0.048215
     135     C        1         2.027208     1.972158     0.000634     0.055049
     136     C        1         1.975799     2.024007     0.000195    -0.048208
     137     C        1         2.025218     1.974403     0.000380     0.050815
     138     C        1         1.976697     2.023495    -0.000192    -0.046798
     139     C        1         2.025246     1.974420     0.000334     0.050826
     140     C        1         1.977328     2.022718    -0.000046    -0.045390
     141     C        1         2.024604     1.975279     0.000118     0.049325
     142     C        1         1.977602     2.022347     0.000051    -0.044745
     143     C        1         2.024429     1.975543     0.000029     0.048886
 # Total charge and spin      286.933647   285.066353    -0.000000     1.867295

 !-----------------------------------------------------------------------------!

 Hirshfeld charge iterations: Residuals ...
   0.007
 !-----------------------------------------------------------------------------!
                           Hirshfeld Charges

  #Atom  Element  Kind  Ref Charge     Population       Spin moment  Net charge
      1       C      1       3.997    1.990   2.008           -0.018      0.003
      2       C      1       3.999    2.017   1.983            0.034      0.001
      3       C      1       4.000    1.986   2.014           -0.029      0.000
      4       C      1       4.000    2.016   1.984            0.032      0.000
      5       C      1       3.997    1.990   2.007           -0.017      0.003
      6       C      1       3.999    2.016   1.983            0.034      0.001
      7       C      1       3.999    1.986   2.014           -0.028      0.001
      8       C      1       4.001    2.017   1.984            0.032     -0.001
      9       C      1       3.997    1.990   2.006           -0.016      0.003
     10       C      1       4.000    2.017   1.983            0.034      0.000
     11       C      1       3.999    1.985   2.014           -0.029      0.001
     12       C      1       3.999    2.017   1.982            0.035      0.001
     13       C      1       3.996    1.990   2.006           -0.016      0.004
     14       C      1       3.999    2.018   1.981            0.037      0.001
     15       C      1       4.000    1.984   2.016           -0.031      0.000
     16       C      1       3.999    2.017   1.982            0.035      0.001
     17       C      1       3.998    1.989   2.009           -0.021      0.002
     18       C      1       3.999    2.017   1.982            0.035      0.001
     19       C      1       4.000    1.985   2.015           -0.030     -0.000
     20       C      1       3.999    2.016   1.983            0.034      0.001
     21       C      1       3.998    1.989   2.008           -0.019      0.002
     22       C      1       3.999    2.017   1.983            0.034      0.001
     23       C      1       4.000    1.985   2.014           -0.029      0.000
     24       C      1       4.000    2.016   1.984            0.032      0.000
     25       C      1       4.000    1.986   2.014           -0.029      0.000
     26       C      1       4.000    2.016   1.984            0.032      0.000
     27       C      1       3.997    1.990   2.007           -0.017      0.003
     28       C      1       3.999    2.016   1.983            0.034      0.001
     29       C      1       3.999    1.986   2.014           -0.028      0.001
     30       C      1       4.000    2.016   1.984            0.032     -0.000
     31       C      1       3.997    1.990   2.006           -0.016      0.003
     32       C      1       4.000    2.017   1.983            0.034      0.000
     33       C      1       3.999    1.986   2.013           -0.028      0.001
     34       C      1       4.001    2.017   1.984            0.032     -0.001
     35       C      1       3.997    1.990   2.007           -0.016      0.003
     36       C      1       4.000    2.020   1.980            0.040      0.000
     37       C      1       3.999    1.987   2.012           -0.025      0.001
     38       C      1       3.995    2.028   1.967            0.061      0.005
     39       C      1       3.998    1.986   2.012           -0.026      0.002
     40       C      1       3.998    2.018   1.980            0.038      0.002
     41       C      1       4.000    1.984   2.016           -0.031      0.000
     42       C      1       3.999    2.018   1.981            0.037      0.001
     43       C      1       3.997    1.989   2.009           -0.020      0.003
     44       C      1       3.999    2.017   1.982            0.035      0.001
     45       C      1       4.000    1.985   2.015           -0.029      0.000
     46       C      1       3.999    2.016   1.983            0.033      0.001
     47       C      1       3.997    1.989   2.008           -0.018      0.003
     48       C      1       3.999    2.017   1.983            0.034      0.001
     49       C      1       4.000    1.985   2.014           -0.029      0.000
     50       C      1       3.999    2.017   1.983            0.034      0.001
     51       C      1       3.999    1.986   2.014           -0.028      0.001
     52       C      1       4.000    2.017   1.983            0.034      0.000
     53       C      1       4.000    1.986   2.014           -0.029      0.000
     54       C      1       3.999    2.016   1.983            0.033      0.001
     55       C      1       3.999    1.987   2.013           -0.026      0.001
     56       C      1       3.999    2.016   1.983            0.033      0.001
     57       C      1       3.999    1.984   2.015           -0.032      0.001
     58       C      1       3.993    2.008   1.986            0.022      0.007
     59       C      2       3.990    1.980   2.009           -0.029      0.010
     60       C      1       3.998    2.023   1.975            0.048      0.002
     61       C      3       3.999    1.995   2.004           -0.010      0.001
     62       C      2       4.055    2.353   1.702            0.651     -0.055
     63       C      3       3.993    1.985   2.008           -0.022      0.007
     64       C      1       3.994    2.026   1.968            0.058      0.006
     65       C      1       3.999    1.984   2.014           -0.030      0.001
     66       C      1       4.000    2.021   1.978            0.043      0.000
     67       C      1       3.999    1.984   2.015           -0.030      0.001
     68       C      1       3.999    2.017   1.982            0.035      0.001
     69       C      1       4.000    1.985   2.015           -0.030      0.000
     70       C      1       3.999    2.018   1.982            0.036      0.001
     71       C      1       4.000    1.985   2.014           -0.029      0.000
     72       C      1       3.999    2.017   1.983            0.034      0.001
     73       C      1       3.997    1.990   2.007           -0.017      0.003
     74       C      1       3.999    2.017   1.983            0.034      0.001
     75       C      1       3.999    1.986   2.014           -0.028      0.001
     76       C      1       4.000    2.016   1.984            0.032      0.000
     77       C      1       3.997    1.991   2.005           -0.014      0.003
     78       C      1       3.999    2.016   1.983            0.033      0.001
     79       C      1       3.999    1.987   2.013           -0.026      0.001
     80       C      1       4.000    2.015   1.985            0.030      0.000
     81       C      1       3.995    1.995   2.001           -0.006      0.005
     82       C      1       3.993    2.008   1.986            0.022      0.007
     83       C      1       3.990    1.980   2.009           -0.029      0.010
     84       C      3       4.005    1.898   2.107           -0.209     -0.005
     85       C      2       4.055    2.353   1.702            0.651     -0.055
     86       C      1       3.993    1.985   2.008           -0.022      0.007
     87       C      1       3.996    2.036   1.960            0.076      0.004
     88       C      1       3.998    1.987   2.011           -0.024      0.002
     89       C      1       4.000    2.021   1.978            0.043      0.000
     90       C      1       3.999    1.984   2.015           -0.030      0.001
     91       C      1       4.000    2.020   1.980            0.039      0.000
     92       C      1       3.998    1.989   2.008           -0.019      0.002
     93       C      1       3.999    2.018   1.982            0.036      0.001
     94       C      1       4.000    1.985   2.014           -0.029      0.000
     95       C      1       4.000    2.017   1.983            0.033      0.000
     96       C      1       4.000    1.985   2.014           -0.029      0.000
     97       C      1       4.000    2.016   1.984            0.032      0.000
     98       C      1       3.997    1.990   2.007           -0.017      0.003
     99       C      1       4.000    2.017   1.983            0.034      0.000
    100       C      1       4.000    1.986   2.014           -0.029      0.000
    101       C      1       4.000    2.016   1.984            0.032     -0.000
    102       C      1       3.997    1.990   2.006           -0.016      0.003
    103       C      1       3.999    2.016   1.983            0.033      0.001
    104       C      1       3.999    1.984   2.015           -0.032      0.001
    105       C      1       4.001    2.017   1.984            0.032     -0.001
    106       C      1       3.997    1.990   2.007           -0.016      0.003
    107       C      1       3.998    2.023   1.975            0.048      0.002
    108       C      1       3.999    1.995   2.004           -0.010      0.001
    109       C      1       3.995    2.028   1.967            0.061      0.005
    110       C      1       3.998    1.986   2.012           -0.026      0.002
    111       C      1       3.994    2.026   1.968            0.058      0.006
    112       C      1       3.999    1.984   2.014           -0.030      0.001
    113       C      1       3.999    2.018   1.981            0.037      0.001
    114       C      1       3.997    1.989   2.009           -0.020      0.003
    115       C      1       3.999    2.017   1.982            0.035      0.001
    116       C      1       4.000    1.985   2.015           -0.030      0.000
    117       C      1       3.999    2.016   1.983            0.033      0.001
    118       C      1       3.997    1.989   2.008           -0.018      0.003
    119       C      1       3.999    2.017   1.983            0.034      0.001
    120       C      1       4.000    1.986   2.014           -0.029      0.000
    121       C      1       3.999    2.017   1.983            0.034      0.001
    122       C      1       4.000    1.986   2.014           -0.029      0.000
    123       C      1       3.999    2.016   1.983            0.034      0.001
    124       C      1       3.999    1.986   2.014           -0.028      0.001
    125       C      1       3.999    2.016   1.983            0.034      0.001
    126       C      1       3.999    1.986   2.014           -0.028      0.001
    127       C      1       4.000    2.017   1.983            0.034      0.000
    128       C      1       3.999    1.986   2.013           -0.028      0.001
    129       C      1       4.000    2.017   1.983            0.034      0.000
    130       C      1       3.999    1.985   2.014           -0.029      0.001
    131       C      1       4.000    2.020   1.980            0.040      0.000
    132       C      1       3.999    1.987   2.012           -0.025      0.001
    133       C      1       3.999    2.018   1.981            0.037      0.001
    134       C      1       4.000    1.984   2.016           -0.031      0.000
    135       C      1       3.998    2.018   1.980            0.038      0.002
    136       C      1       4.000    1.984   2.016           -0.031      0.000
    137       C      1       3.999    2.017   1.982            0.035      0.001
    138       C      1       4.000    1.985   2.015           -0.030     -0.000
    139       C      1       3.999    2.017   1.982            0.035      0.001
    140       C      1       4.000    1.985   2.015           -0.029      0.000
    141       C      1       3.999    2.017   1.983            0.034      0.001
    142       C      1       4.000    1.985   2.014           -0.029      0.000
    143       C      1       3.999    2.017   1.983            0.034      0.001

  Total Charge                                                            0.086
 !-----------------------------------------------------------------------------!

 ENERGY| Total FORCE_EVAL ( QS ) energy [hartree]           -814.637487569141172

 -------------------------------------------------------------------------------
 -                                                                             -
 -                                DBCSR STATISTICS                             -
 -                                                                             -
 -------------------------------------------------------------------------------
 COUNTER                                    TOTAL       BLAS       SMM       ACC
 flops    13 x    13 x    77          11177178012     100.0%      0.0%      0.0%     
 flops    13 x    13 x    79          11467494324     100.0%      0.0%      0.0%     
 flops    13 x    13 x    96          83611097856     100.0%      0.0%      0.0%     
 flops inhomo. stacks                           0       0.0%      0.0%      0.0%
 flops total                       106.255770E+09     100.0%      0.0%      0.0%
 flops max/rank                      7.040965E+09     100.0%      0.0%      0.0%
 matmuls inhomo. stacks                         0       0.0%      0.0%      0.0%
 matmuls total                            3435696     100.0%      0.0%      0.0%
 number of processed stacks                 13824     100.0%      0.0%      0.0%
 average stack size                                   248.5       0.0       0.0
 marketing flops                     3.483946E-36
 -------------------------------------------------------------------------------
 # multiplications                            108
 max memory usage/rank               2.339029E+09
 # max total images/rank                        1
 # max 3D layers                                1
 # MPI messages exchanged                   10368
 MPI messages size (bytes):
  total size                      -343.438592E+06
  min size                         280.280000E+03
  max size                         359.424000E+03
  average size                     -33.124863E+03
 MPI breakdown and total messages size (bytes):
             size <=      128                   0                        0
       128 < size <=     8192                   0                        0
      8192 < size <=    32768                   0                        0
     32768 < size <=   131072                   0                        0
    131072 < size <=  4194304               10368               3527162496
   4194304 < size <= 16777216                   0                        0
  16777216 < size                               0                        0
 -------------------------------------------------------------------------------
 -                                                                             -
 -                      DBCSR MESSAGE PASSING PERFORMANCE                      -
 -                                                                             -
 -------------------------------------------------------------------------------
 ROUTINE             CALLS      AVE VOLUME [Bytes]
 MP_Bcast                4                     12.
 MP_Allreduce          565                      9.
 MP_Alltoall          3060                 356954.
 MP_ISend             1728                 131770.
 MP_IRecv             1728                 123580.
 -------------------------------------------------------------------------------

 -------------------------------------------------------------------------------
 -                                                                             -
 -                                GRID STATISTICS                              -
 -                                                                             -
 -------------------------------------------------------------------------------
 LP    KERNEL             BACKEND                              COUNT     PERCENT
 4     collocate ortho    CPU                                7890850      50.43%
 4     integrate ortho    CPU                                7747380      49.51%
 0     collocate general  CPU                                   4576       0.03%
 0     integrate general  CPU                                   4576       0.03%
 -------------------------------------------------------------------------------

 -------------------------------------------------------------------------------
 -                                                                             -
 -                          OFFLOAD MEMPOOL STATISTICS                         -
 -                                                                             -
 -------------------------------------------------------------------------------
 Memory consumption                Number of allocations  Used [MiB]  Size [MiB]
 Device                                                6          15          15
 Host                                                  6          15          15
 -------------------------------------------------------------------------------

 MEMORY| Estimated peak process memory [MiB]                                 736

 -------------------------------------------------------------------------------
 -                                                                             -
 -                         MESSAGE PASSING PERFORMANCE                         -
 -                                                                             -
 -------------------------------------------------------------------------------

 ROUTINE             CALLS      AVE VOLUME [Bytes]
 MP_Group                4
 MP_Bcast              241                 114344.
 MP_Allreduce         2390                   4865.
 MP_Sync               114
 MP_Alltoall          2131               10885832.
 MP_SendRecv          3300                  57600.
 MP_ISendRecv         3240                  57600.
 MP_Wait             13360
 MP_comm_split         110
 MP_ISend             8800                 222570.
 MP_IRecv             8800                 222602.
 -------------------------------------------------------------------------------


 -------------------------------------------------------------------------------
 -                                                                             -
 -                           R E F E R E N C E S                               -
 -                                                                             -
 -------------------------------------------------------------------------------
 
 CP2K version 2026.1, the CP2K developers group (2026).
 CP2K is freely available from https://www.cp2k.org/ .
 
 T. D. Kuehne, M. Iannuzzi, M. Del Ben, V. V. Rybkin, P. Seewald, F. Stein, T. 
 Laino, R. Z. Khaliullin, O. Schuett, F. Schiffmann, D. Golze, J. Wilhelm, S. 
 Chulkov, M. H. Bani-Hashemian, V. Weber, U. Borstnik, M. Taillefumier, A. S. 
 Jakobovits, A. Lazzaro, H. Pabst, T. Mueller, R. Schade, M. Guidon, S. 
 Andermatt, N. Holmberg, G. K. Schenter, A. Hehn, A. Bussy, F. Belleflamme, G. 
 Tabacchi, A. Gloess, M. Lass, I. Bethune, C. J. Mundy, C. Plessl, M. Watkins, 
 J. VandeVondele, M. Krack, J. Hutter.
 J. Chem. Phys. 152, 194103 (2020).
 CP2K: An electronic structure and molecular dynamics software package - 
 Quickstep: Efficient and accurate electronic structure calculations.
 https://doi.org/10.1063/5.0007045

 L. Goerigk, A. Hansen, C. Bauer, S. Ehrlich, A. Najibi, S. Grimme.
 Phys. Chem. Chem. Phys. 19, 32184-32215 (2017).
 A look at the density functional theory zoo with the advanced GMTKN55 database 
 for general main group thermochemistry, kinetics and noncovalent interactions.
 https://doi.org/10.1039/C7CP04913G

 O. Schuett, P. Messmer, J. Hutter, J. VandeVondele.
 Electronic Structure Calculations on Graphics Processing Units, 173-190 (2016).
 GPU-Accelerated Sparse Matrix-Matrix Multiplication for Linear Scaling Density 
 Functional Theory.
 https://doi.org/10.1002/9781118670712.ch8

 A. Heinecke, G. Henry, M. Hutchinson, H. Pabst.
 Proceedings of Intl. Supercomputing Conference, 981-991 (2016).
 LIBXSMM: Accelerating Small Matrix Multiplications by Runtime Code Generation.
 https://doi.org/10.1109/SC.2016.83

 J. Hutter, M. Iannuzzi, F. Schiffmann, J. VandeVondele.
 WIREs Comput Mol Sci. 4, 15-25 (2014).
 CP2K: atomistic simulations of condensed matter systems.
 https://doi.org/10.1002/wcms.1159

 U. Borstnik, J. VandeVondele, V. Weber, J. Hutter.
 Parallel Comput. 40, 47-58 (2014).
 Sparse matrix multiplication: The distributed block-compressed sparse row 
 library.
 https://doi.org/10.1016/j.parco.2014.03.012

 S. Grimme, S. Ehrlich, L. Goerigk.
 J. Comput. Chem. 32, 1456 (2011).
 Effect of the damping function in dispersion corrected density functional 
 theory.
 https://doi.org/10.1002/jcc.21759

 S. Grimme, J. Antony, S. Ehrlich, H. Krieg.
 J. Chem. Phys. 132, 154104 (2010).
 A consistent and accurate ab initio parametrization of density functional 
 dispersion correction (DFT-D) for the 94 elements H-Pu.
 https://doi.org/10.1063/1.3382344

 J. VandeVondele, J. Hutter.
 J. Chem. Phys. 127, 114105 (2007).
 Gaussian basis sets for accurate calculations on molecular systems in gas and 
 condensed phases.
 https://doi.org/10.1063/1.2770708

 J. VandeVondele, M. Krack, F. Mohamed, M. Parrinello, T. Chassaing, J. Hutter.
 Comput. Phys. Commun. 167, 103-128 (2005).
 QUICKSTEP: Fast and accurate density functional calculations using a mixed 
 Gaussian and plane waves approach.
 https://doi.org/10.1016/j.cpc.2004.12.014

 M. Krack.
 Theor. Chem. Acc. 114, 145-152 (2005).
 Pseudopotentials for H to Kr optimized for gradient-corrected 
 exchange-correlation functionals.
 https://doi.org/10.1007/s00214-005-0655-y

 M. Frigo, S. G. Johnson.
 Proc. IEEE 93, 216-231 (2005).
 The design and implementation of FFTW3.
 https://doi.org/10.1109/JPROC.2004.840301

 C. Hartwigsen, S. Goedecker, J. Hutter.
 Phys. Rev. B 58, 3641-3662 (1998).
 Relativistic separable dual-space Gaussian pseudopotentials from H to Rn.
 https://doi.org/10.1103/PhysRevB.58.3641

 G. Lippert, J. Hutter, M. Parrinello.
 Mol. Phys. 92, 477-487 (1997).
 A hybrid Gaussian and plane wave density functional scheme.
 https://doi.org/10.1080/002689797170220

 S. Goedecker, M. Teter, J. Hutter.
 Phys. Rev. B 54, 1703-1710 (1996).
 Separable dual-space Gaussian pseudopotentials.
 https://doi.org/10.1103/PhysRevB.54.1703

 J. P. Perdew, K. Burke, M. Ernzerhof.
 Phys. Rev. Lett. 77, 3865-3868 (1996).
 Generalized gradient approximation made simple.
 https://doi.org/10.1103/PhysRevLett.77.3865


 -------------------------------------------------------------------------------
 -                                                                             -
 -                                T I M I N G                                  -
 -                                                                             -
 -------------------------------------------------------------------------------
 SUBROUTINE                       CALLS  ASD         SELF TIME        TOTAL TIME
                                MAXIMUM       AVERAGE  MAXIMUM  AVERAGE  MAXIMUM
 CP2K                                 1  1.0    0.016    0.018   83.559   83.560
 qs_energies                          1  2.0    0.000    0.000   83.362   83.362
 scf_env_do_scf                       1  3.0    0.000    0.000   82.044   82.047
 scf_env_do_scf_inner_loop           54  4.0    0.002    0.005   82.044   82.047
 qs_scf_new_mos                      54  5.0    0.001    0.001   45.187   45.197
 eigensolver                        108  6.0    0.007    0.009   43.806   43.841
 cp_fm_syevd                        110  7.0    0.001    0.001   36.752   36.788
 cp_fm_redistribute_end             110  8.0   18.409   36.437   18.554   36.667
 cp_fm_syevd_base                   110  8.0   18.016   36.080   18.016   36.080
 qs_ks_update_qs_env                 54  5.0    0.000    0.000   20.461   20.470
 rebuild_ks_matrix                   54  6.0    0.000    0.000   20.422   20.431
 qs_ks_build_kohn_sham_matrix        54  7.0    0.007    0.008   20.422   20.431
 fft_wrap_pw1pw2                   1899 10.1    0.027    0.037   16.403   16.911
 fft_wrap_pw1pw2_80                1245 11.4    0.516    0.739   15.529   16.116
 fft3d_ps                          1899 12.1    6.825    8.643   12.888   14.561
 qs_vxc_create                       54  8.0    0.001    0.002   12.481   12.693
 xc_vxc_pw_create                    54  9.0    0.179    0.229   12.480   12.692
 xc_pw_derive                       648 11.0    0.005    0.007    8.954    9.439
 qs_rho_update_rho_low               55  5.0    0.000    0.000    8.663    8.677
 calculate_rho_elec                 110  6.0    0.095    0.102    8.663    8.676
 mp_alltoall_z22v                  1899 14.1    4.637    8.509    4.637    8.509
 gspace_mixing                       53  5.0    0.093    0.099    7.812    7.812
 cp_fm_cholesky_restore             324  7.0    7.492    7.755    7.492    7.755
 density_rs2pw                      110  7.0    0.004    0.005    5.135    7.065
 sum_up_and_integrate                54  8.0    0.002    0.002    6.536    6.545
 integrate_v_rspace                 108  9.0    0.004    0.005    6.484    6.492
 xc_rho_set_and_dset_create          54 10.0    0.150    0.197    6.094    6.259
 xc_pw_divergence                   108 10.0    0.002    0.003    5.979    6.251
 broyden_mixing                      53  6.0    4.579    5.933    5.939    6.040
 yz_to_x                            873 12.9    0.533    0.763    2.892    4.704
 x_to_yz                           1026 13.3    0.861    1.154    3.139    4.464
 grid_collocate_task_list           110  7.0    2.972    3.999    2.972    3.999
 transfer_rs2pw                     442  8.0    0.003    0.004    1.970    3.679
 grid_integrate_task_list           108 10.0    2.560    3.677    2.560    3.677
 mp_waitany                        8800 11.5    1.693    3.613    1.693    3.613
 transfer_rs2pw_80                  112  9.0    0.191    0.235    1.476    3.164
 mp_alltoall_d11v                  1532  9.3    1.484    3.154    1.484    3.154
 rs_gather_matrices                 108 10.0    0.045    0.065    1.189    2.881
 potential_pw2rs                    108 10.0    0.014    0.019    2.730    2.757
 pw_gather_p                        873 11.9    1.571    2.158    1.571    2.158
 mp_sum_d                          1339  5.6    0.952    2.040    0.952    2.040
 mp_sum_dm                          837  7.9    0.897    1.977    0.897    1.977
 -------------------------------------------------------------------------------

 The number of warnings for this run is : 0
 
 -------------------------------------------------------------------------------
  **** **** ******  **  PROGRAM ENDED AT                 2026-06-19 20:04:01.447
 ***** ** ***  *** **   PROGRAM RAN ON             ip-172-31-89-158.ec2.internal
 **    ****   ******    PROGRAM RAN BY                                 <unknown>
 ***** **    ** ** **   PROGRAM PROCESS ID                                 11175
  **** **  *******  **  PROGRAM STOPPED IN /opt/cp2k_sanity/cp2k_adsorption_hete
                                           rogeneity
