 DBCSR| CPU Multiplication driver                                           BLAS (U)
 DBCSR| Multrec recursion limit                                              512 (U)
 DBCSR| Multiplication stack size                                           1000 (D)
 DBCSR| Maximum elements for images                                    UNLIMITED (U)
 DBCSR| Multiplicative factor virtual images                                   1 (U)
 DBCSR| Use multiplication densification                                       T (D)
 DBCSR| Multiplication size stacks                                             3 (U)
 DBCSR| Use memory pool for CPU allocation                                     F (U)
 DBCSR| Number of 3D layers                                               SINGLE (U)
 DBCSR| Use MPI memory allocation                                              F (U)
 DBCSR| Use RMA algorithm                                                      F (U)
 DBCSR| Use Communication thread                                               T (U)
 DBCSR| Communication thread load                                             75 (D)
 DBCSR| MPI: My process id                                                     0
 DBCSR| MPI: Number of processes                                               1
 DBCSR| OMP: Current number of threads                                         4
 DBCSR| OMP: Max number of threads                                             4
 DBCSR| Split modifier for TAS multiplication algorithm                  1.0E+00 (U)


  **** **** ******  **  PROGRAM STARTED AT               2026-06-18 22:03:22.244
 ***** ** ***  *** **   PROGRAM STARTED ON                                cyz912
 **    ****   ******    PROGRAM STARTED BY                           cyzcomputer
 ***** **    ** ** **   PROGRAM PROCESS ID                                  2718
  **** **  *******  **  PROGRAM STARTED IN /home/cyzcomputer/cp2k_i2_runs/cp2k_a
                                           dsorption_heterogeneity_check_2026061
                                           8

 CP2K| version string:                                       CP2K version 2026.1
 CP2K| source code revision number:                                      dafce1f
 CP2K| cp2kflags: omp libint fftw3 libxc elpa parallel scalapack mpi_f08 xsmm pl
 CP2K|            umed2 spglib sirius libtorch hdf5 trexio
 CP2K| is freely available from                            https://www.cp2k.org/
 CP2K| Program compiled at                                   2026-05-26 14:43:38
 CP2K| Program compiled on                                                      
 CP2K| Program compiled for                                               x86_64
 CP2K| Data directory path    /home/cyzcomputer/micromamba/envs/cp2k_i2/share/cp
 CP2K| Input file name        sp/basal_pristine_periodic_slab_bare_surface_d3_sp

 GLOBAL| Force Environment number                                              1
 GLOBAL| Basis set file name            /home/cyzcomputer/micromamba/envs/cp2k_i
 GLOBAL| Potential file name            /home/cyzcomputer/micromamba/envs/cp2k_i
 GLOBAL| MM Potential file name                                     MM_POTENTIAL
 GLOBAL| Coordinate file name                                      __STD_INPUT__
 GLOBAL| Method name                                                        CP2K
 GLOBAL| Project name                   basal_pristine_periodic_slab_bare_surfac
 GLOBAL| Run type                                                         ENERGY
 GLOBAL| FFT library                                                       FFTW3
 GLOBAL| Diagonalization library                                            ELPA
 GLOBAL| Cholesky decomposition library                                ScaLAPACK
 GLOBAL| DGEMM library                                                      BLAS
 GLOBAL| Minimum number of eigenvectors for ELPA usage                        16
 GLOBAL| Orthonormality check for eigenvectors                          DISABLED
 GLOBAL| Matrix multiplication library                                 ScaLAPACK
 GLOBAL| All-to-all communication in single precision                          F
 GLOBAL| FFTs using library dependent lengths                                  F
 GLOBAL| Grid backend                                                       AUTO
 GLOBAL| Global print level                                                  LOW
 GLOBAL| MPI I/O enabled                                                       T
 GLOBAL| Total number of message passing processes                             1
 GLOBAL| Number of distributed systems (nodes)                                 1
 GLOBAL| Number of threads for this process                                    4
 GLOBAL| This output is from process                                           0
 GLOBAL| OpenMP stack size per thread (OMP_STACKSIZE)                    default
 GLOBAL| CPU model name                    13th Gen Intel(R) Core(TM) i9-13900HX
 GLOBAL| CPUID                                                              1002

 MEMORY| system memory details [Kb]
 MEMORY|                        rank 0           min           max       average
 MEMORY| MemTotal              7993344       7993344       7993344       7993344
 MEMORY| MemFree               6070220       6070220       6070220       6070220
 MEMORY| Buffers                 78748         78748         78748         78748
 MEMORY| Cached                1053508       1053508       1053508       1053508
 MEMORY| Slab                   174652        174652        174652        174652
 MEMORY| SReclaimable            53556         53556         53556         53556
 MEMORY| MemLikelyFree         7256032       7256032       7256032       7256032


 GENERATE|  Preliminary Number of Bonds generated:                             0
 GENERATE|  Achieved consistency in connectivity generation.

 *******************************************************************************
 *******************************************************************************
 **                                                                           **
 **     #####                         ##              ##                      **
 **    ##   ##            ##          ##              ##                      **
 **   ##     ##                       ##            ######                    **
 **   ##     ##  ##   ##  ##   #####  ##  ##   ####   ##    #####    #####    **
 **   ##     ##  ##   ##  ##  ##      ## ##   ##      ##   ##   ##  ##   ##   **
 **   ##  ## ##  ##   ##  ##  ##      ####     ###    ##   ######   ######    **
 **    ##  ###   ##   ##  ##  ##      ## ##      ##   ##   ##       ##        **
 **     #######   #####   ##   #####  ##  ##  ####    ##    #####   ##        **
 **           ##                                                    ##        **
 **                                                                           **
 **                                                ... make the atoms dance   **
 **                                                                           **
 **            Copyright (C) by CP2K developers group (2000-2026)             **
 **                      J. Chem. Phys. 152, 194103 (2020)                    **
 **                                                                           **
 *******************************************************************************


 TOTAL NUMBERS AND MAXIMUM NUMBERS

  Total number of            - Atomic kinds:                                   1
                             - Atoms:                                        144
                             - Shell sets:                                   144
                             - Shells:                                       720
                             - Primitive Cartesian functions:                720
                             - Cartesian basis functions:                   2016
                             - Spherical basis functions:                   1872

  Maximum angular momentum of- Orbital basis functions:                        2
                             - Local part of the GTH pseudopotential:          2
                             - Non-local part of the GTH pseudopotential:      0


 SCF PARAMETERS         Density guess:                                    ATOMIC
                        --------------------------------------------------------
                        max_scf:                                             260
                        max_scf_history:                                       0
                        max_diis:                                              4
                        --------------------------------------------------------
                        eps_scf:                                        1.00E-05
                        eps_scf_history:                                0.00E+00
                        eps_diis:                                       0.00E+00
                        eps_eigval:                                     1.00E-05
                        --------------------------------------------------------
                        level_shift [a.u.]:                             0.000000
                        --------------------------------------------------------
                        Outer loop SCF in use 
                        No variables optimised in outer loop
                        eps_scf                                         1.00E-05
                        max_scf                                               10
                        No outer loop optimization
                        step_size                                       5.00E-01

 Extrapolation method: initial_guess

 Number of electrons:                                                        576
 Number of occupied orbitals:                                                288
 Number of molecular orbitals:                                               288

 Number of orbital functions:                                               1872
 Number of independent orbital functions:                                   1872


 SCF WAVEFUNCTION OPTIMIZATION

  ----------------------------------- OT ---------------------------------------
  Minimizer      : DIIS                : direct inversion
                                         in the iterative subspace
                                         using   7 DIIS vectors
                                         safer DIIS on
  Preconditioner : FULL_SINGLE_INVERSE : inversion of 
                                         H + eS - 2*(Sc)(c^T*H*c+const)(Sc)^T
  Precond_solver : DEFAULT
  stepsize       :    0.08000000                  energy_gap     :    0.08000000
  eps_taylor     :   0.10000E-15                  max_taylor     :             4
  ----------------------------------- OT ---------------------------------------

  Step     Update method      Time    Convergence         Total energy    Change
  ------------------------------------------------------------------------------
     1 OT DIIS     0.80E-01   23.4     0.02507836      -767.3380485102 -7.67E+02
     2 OT DIIS     0.80E-01   13.6     0.03471498      -786.1853260547 -1.88E+01
     3 OT DIIS     0.80E-01   15.5     0.02135718      -793.7748513237 -7.59E+00
     4 OT DIIS     0.80E-01   13.6     0.01254805      -809.8263984319 -1.61E+01
     5 OT DIIS     0.80E-01   13.0     0.00719418      -816.0701586204 -6.24E+00
     6 OT DIIS     0.80E-01   13.4     0.00517552      -817.5418041676 -1.47E+00
     7 OT DIIS     0.80E-01   14.9     0.00325659      -818.8359464432 -1.29E+00
     8 OT DIIS     0.80E-01   15.1     0.00226196      -819.4356218883 -6.00E-01
     9 OT DIIS     0.80E-01   16.6     0.00171047      -819.7786433871 -3.43E-01
    10 OT DIIS     0.80E-01   16.2     0.00126238      -820.0252385841 -2.47E-01
    11 OT DIIS     0.80E-01   15.2     0.00101076      -820.1708907379 -1.46E-01
    12 OT DIIS     0.80E-01   15.6     0.00078167      -820.2787091392 -1.08E-01
    13 OT DIIS     0.80E-01   15.2     0.00061446      -820.3602245413 -8.15E-02
    14 OT DIIS     0.80E-01   20.4     0.00049997      -820.4123858510 -5.22E-02
    15 OT DIIS     0.80E-01   16.1     0.00041521      -820.4510628045 -3.87E-02
    16 OT DIIS     0.80E-01   16.1     0.00036133      -820.4796113411 -2.85E-02
    17 OT DIIS     0.80E-01   16.7     0.00031627      -820.4988376891 -1.92E-02
    18 OT DIIS     0.80E-01   18.3     0.00029034      -820.5158391667 -1.70E-02
    19 OT DIIS     0.80E-01   15.4     0.00025674      -820.5295895488 -1.38E-02
    20 OT DIIS     0.80E-01   15.1     0.00023233      -820.5416479016 -1.21E-02
    21 OT DIIS     0.80E-01   15.0     0.00020731      -820.5539031238 -1.23E-02
    22 OT DIIS     0.80E-01   15.1     0.00018761      -820.5630381367 -9.14E-03
    23 OT DIIS     0.80E-01   15.9     0.00016956      -820.5705701527 -7.53E-03
    24 OT DIIS     0.80E-01   15.4     0.00015350      -820.5771222221 -6.55E-03
    25 OT DIIS     0.80E-01   16.9     0.00013505      -820.5842086792 -7.09E-03
    26 OT DIIS     0.80E-01   16.2     0.00012379      -820.5875600121 -3.35E-03
    27 OT DIIS     0.80E-01   15.6     0.00011907      -820.5918978177 -4.34E-03
    28 OT DIIS     0.80E-01   21.2     0.00010146      -820.5947705073 -2.87E-03
    29 OT DIIS     0.80E-01   21.6     0.00009229      -820.5984161860 -3.65E-03
    30 OT DIIS     0.80E-01   21.8     0.00007987      -820.6005773390 -2.16E-03
    31 OT DIIS     0.80E-01   19.0     0.00007401      -820.6024211853 -1.84E-03
    32 OT DIIS     0.80E-01   17.4     0.00006716      -820.6038636572 -1.44E-03
    33 OT DIIS     0.80E-01   19.5     0.00006055      -820.6053902032 -1.53E-03
    34 OT DIIS     0.80E-01   20.1     0.00005569      -820.6064441837 -1.05E-03
    35 OT DIIS     0.80E-01   15.5     0.00005054      -820.6073139753 -8.70E-04
    36 OT DIIS     0.80E-01    6.1     0.00004520      -820.6080917780 -7.78E-04
    37 OT DIIS     0.80E-01    6.7     0.00004216      -820.6087121735 -6.20E-04
    38 OT DIIS     0.80E-01    6.4     0.00003931      -820.6090107901 -2.99E-04
    39 OT DIIS     0.80E-01    5.0     0.00003620      -820.6094146223 -4.04E-04
    40 OT DIIS     0.80E-01    5.3     0.00003338      -820.6097748423 -3.60E-04
    41 OT DIIS     0.80E-01    5.4     0.00002981      -820.6101876124 -4.13E-04
    42 OT DIIS     0.80E-01    5.5     0.00002762      -820.6104146953 -2.27E-04
    43 OT DIIS     0.80E-01    5.4     0.00002616      -820.6107481766 -3.33E-04
    44 OT DIIS     0.80E-01    4.7     0.00002423      -820.6108496979 -1.02E-04
    45 OT DIIS     0.80E-01    4.2     0.00002302      -820.6109930968 -1.43E-04
    46 OT DIIS     0.80E-01    3.9     0.00002191      -820.6111486237 -1.56E-04
    47 OT DIIS     0.80E-01    4.0     0.00002056      -820.6113238617 -1.75E-04
    48 OT DIIS     0.80E-01    4.6     0.00001923      -820.6115059272 -1.82E-04
    49 OT DIIS     0.80E-01    4.8     0.00001824      -820.6116238253 -1.18E-04
    50 OT DIIS     0.80E-01    4.8     0.00001718      -820.6117446035 -1.21E-04
    51 OT DIIS     0.80E-01    4.6     0.00001632      -820.6118759267 -1.31E-04
    52 OT DIIS     0.80E-01    4.7     0.00001555      -820.6119783426 -1.02E-04
    53 OT DIIS     0.80E-01    4.7     0.00001457      -820.6120993193 -1.21E-04
    54 OT DIIS     0.80E-01    4.5     0.00001369      -820.6122211943 -1.22E-04
    55 OT DIIS     0.80E-01    4.2     0.00001271      -820.6123344568 -1.13E-04
    56 OT DIIS     0.80E-01    5.1     0.00001198      -820.6124169518 -8.25E-05
    57 OT DIIS     0.80E-01    4.8     0.00001141      -820.6125058762 -8.89E-05
    58 OT DIIS     0.80E-01    5.3     0.00001094      -820.6125472045 -4.13E-05
    59 OT DIIS     0.80E-01    4.9     0.00001030      -820.6126001347 -5.29E-05
    60 OT DIIS     0.80E-01    5.4     0.00000975      -820.6126569478 -5.68E-05

  *** SCF run converged in    60 steps ***


  Electronic density on regular grids:       -575.9999832495        0.0000167505
  Core density on regular grids:              575.9999999548       -0.0000000452
  Total charge density on r-space grids:        0.0000167053
  Total charge density g-space grids:           0.0000167053

  Overlap energy of the core charge distribution:               0.00002667227481
  Self energy of the core charge distribution:              -1920.24114145419048
  Core Hamiltonian energy:                                    603.68022957027233
  Hartree energy:                                             748.74901060865636
  Exchange-correlation energy:                               -252.33072715095253
  Dispersion energy:                                           -0.47005519387215

  Total energy:                                              -820.61265694781162

  outer SCF iter =    1 RMS gradient =   0.98E-05 energy =       -820.6126569478
  outer SCF loop converged in   1 iterations or   60 steps


   Calculate PDOS at iteration step                                  0
 OT| Eigensolver reached convergence in 125 iterations

   Compute           40    additional unoccupied KS orbitals

              ---- PDOS: start iteration on the KS states --- 

 !-----------------------------------------------------------------------------!
                     Mulliken Population Analysis

 #  Atom  Element  Kind  Atomic population                           Net charge
       1     C        1          3.995415                              0.004585
       2     C        1          4.001210                             -0.001210
       3     C        1          4.001891                             -0.001891
       4     C        1          4.003302                             -0.003302
       5     C        1          3.995293                              0.004707
       6     C        1          4.001489                             -0.001489
       7     C        1          4.001974                             -0.001974
       8     C        1          4.003234                             -0.003234
       9     C        1          3.995440                              0.004560
      10     C        1          4.001645                             -0.001645
      11     C        1          4.001920                             -0.001920
      12     C        1          4.003344                             -0.003344
      13     C        1          3.995593                              0.004407
      14     C        1          4.001915                             -0.001915
      15     C        1          4.002303                             -0.002303
      16     C        1          4.003398                             -0.003398
      17     C        1          3.995248                              0.004752
      18     C        1          4.001583                             -0.001583
      19     C        1          4.002190                             -0.002190
      20     C        1          4.003170                             -0.003170
      21     C        1          3.995533                              0.004467
      22     C        1          4.001433                             -0.001433
      23     C        1          4.002083                             -0.002083
      24     C        1          4.003169                             -0.003169
      25     C        1          4.001572                             -0.001572
      26     C        1          4.003254                             -0.003254
      27     C        1          3.995463                              0.004537
      28     C        1          3.996176                              0.003824
      29     C        1          4.001392                             -0.001392
      30     C        1          4.003472                             -0.003472
      31     C        1          3.995424                              0.004576
      32     C        1          3.996017                              0.003983
      33     C        1          4.001601                             -0.001601
      34     C        1          4.003558                             -0.003558
      35     C        1          3.995258                              0.004742
      36     C        1          3.996377                              0.003623
      37     C        1          4.001596                             -0.001596
      38     C        1          4.003537                             -0.003537
      39     C        1          3.995427                              0.004573
      40     C        1          3.996337                              0.003663
      41     C        1          4.001425                             -0.001425
      42     C        1          4.003451                             -0.003451
      43     C        1          3.995343                              0.004657
      44     C        1          3.996226                              0.003774
      45     C        1          4.001640                             -0.001640
      46     C        1          4.003305                             -0.003305
      47     C        1          3.995246                              0.004754
      48     C        1          3.996239                              0.003761
      49     C        1          4.002140                             -0.002140
      50     C        1          3.996143                              0.003857
      51     C        1          4.001489                             -0.001489
      52     C        1          4.001291                             -0.001291
      53     C        1          4.001695                             -0.001695
      54     C        1          3.996200                              0.003800
      55     C        1          4.001539                             -0.001539
      56     C        1          4.001588                             -0.001588
      57     C        1          4.002054                             -0.002054
      58     C        1          3.996107                              0.003893
      59     C        1          4.001376                             -0.001376
      60     C        1          4.001735                             -0.001735
      61     C        1          4.001942                             -0.001942
      62     C        1          3.996127                              0.003873
      63     C        1          4.001484                             -0.001484
      64     C        1          4.001648                             -0.001648
      65     C        1          4.001994                             -0.001994
      66     C        1          3.996392                              0.003608
      67     C        1          4.001593                             -0.001593
      68     C        1          4.001422                             -0.001422
      69     C        1          4.002133                             -0.002133
      70     C        1          3.996314                              0.003686
      71     C        1          4.001341                             -0.001341
      72     C        1          4.001509                             -0.001509
      73     C        1          3.995433                              0.004567
      74     C        1          4.001486                             -0.001486
      75     C        1          4.001822                             -0.001822
      76     C        1          4.003211                             -0.003211
      77     C        1          3.995390                              0.004610
      78     C        1          4.001812                             -0.001812
      79     C        1          4.001735                             -0.001735
      80     C        1          4.003269                             -0.003269
      81     C        1          3.995593                              0.004407
      82     C        1          4.001864                             -0.001864
      83     C        1          4.001674                             -0.001674
      84     C        1          4.003281                             -0.003281
      85     C        1          3.995480                              0.004520
      86     C        1          4.001617                             -0.001617
      87     C        1          4.001928                             -0.001928
      88     C        1          4.003280                             -0.003280
      89     C        1          3.995359                              0.004641
      90     C        1          4.001690                             -0.001690
      91     C        1          4.002215                             -0.002215
      92     C        1          4.003138                             -0.003138
      93     C        1          3.995484                              0.004516
      94     C        1          4.001460                             -0.001460
      95     C        1          4.001796                             -0.001796
      96     C        1          4.003340                             -0.003340
      97     C        1          4.001293                             -0.001293
      98     C        1          4.003170                             -0.003170
      99     C        1          3.995492                              0.004508
     100     C        1          3.996407                              0.003593
     101     C        1          4.001416                             -0.001416
     102     C        1          4.003367                             -0.003367
     103     C        1          3.995368                              0.004632
     104     C        1          3.996189                              0.003811
     105     C        1          4.001381                             -0.001381
     106     C        1          4.003423                             -0.003423
     107     C        1          3.995274                              0.004726
     108     C        1          3.996201                              0.003799
     109     C        1          4.001612                             -0.001612
     110     C        1          4.003184                             -0.003184
     111     C        1          3.995386                              0.004614
     112     C        1          3.996211                              0.003789
     113     C        1          4.001423                             -0.001423
     114     C        1          4.003417                             -0.003417
     115     C        1          3.995582                              0.004418
     116     C        1          3.996178                              0.003822
     117     C        1          4.001498                             -0.001498
     118     C        1          4.003185                             -0.003185
     119     C        1          3.995179                              0.004821
     120     C        1          3.996383                              0.003617
     121     C        1          4.002218                             -0.002218
     122     C        1          3.996025                              0.003975
     123     C        1          4.001478                             -0.001478
     124     C        1          4.001359                             -0.001359
     125     C        1          4.001851                             -0.001851
     126     C        1          3.996287                              0.003713
     127     C        1          4.001552                             -0.001552
     128     C        1          4.001787                             -0.001787
     129     C        1          4.001970                             -0.001970
     130     C        1          3.996160                              0.003840
     131     C        1          4.001173                             -0.001173
     132     C        1          4.001604                             -0.001604
     133     C        1          4.002034                             -0.002034
     134     C        1          3.996140                              0.003860
     135     C        1          4.001543                             -0.001543
     136     C        1          4.001744                             -0.001744
     137     C        1          4.002129                             -0.002129
     138     C        1          3.996207                              0.003793
     139     C        1          4.001424                             -0.001424
     140     C        1          4.001493                             -0.001493
     141     C        1          4.002442                             -0.002442
     142     C        1          3.996345                              0.003655
     143     C        1          4.001611                             -0.001611
     144     C        1          4.001482                             -0.001482
 # Total charge                            576.000000                 -0.000000

 !-----------------------------------------------------------------------------!

 Hirshfeld charge iterations: Residuals ...
   0.006
 !-----------------------------------------------------------------------------!
                           Hirshfeld Charges

  #Atom  Element  Kind  Ref Charge     Population                    Net charge
      1       C      1       3.990          3.990                         0.010
      2       C      1       4.002          4.002                        -0.002
      3       C      1       4.003          4.003                        -0.003
      4       C      1       4.006          4.006                        -0.006
      5       C      1       3.990          3.990                         0.010
      6       C      1       4.002          4.002                        -0.002
      7       C      1       4.003          4.003                        -0.003
      8       C      1       4.006          4.006                        -0.006
      9       C      1       3.990          3.990                         0.010
     10       C      1       4.003          4.003                        -0.003
     11       C      1       4.004          4.004                        -0.004
     12       C      1       4.006          4.006                        -0.006
     13       C      1       3.990          3.990                         0.010
     14       C      1       4.003          4.003                        -0.003
     15       C      1       4.004          4.004                        -0.004
     16       C      1       4.006          4.006                        -0.006
     17       C      1       3.990          3.990                         0.010
     18       C      1       4.003          4.003                        -0.003
     19       C      1       4.004          4.004                        -0.004
     20       C      1       4.006          4.006                        -0.006
     21       C      1       3.990          3.990                         0.010
     22       C      1       4.002          4.002                        -0.002
     23       C      1       4.004          4.004                        -0.004
     24       C      1       4.006          4.006                        -0.006
     25       C      1       4.003          4.003                        -0.003
     26       C      1       4.006          4.006                        -0.006
     27       C      1       3.990          3.990                         0.010
     28       C      1       3.992          3.992                         0.008
     29       C      1       4.002          4.002                        -0.002
     30       C      1       4.006          4.006                        -0.006
     31       C      1       3.990          3.990                         0.010
     32       C      1       3.991          3.991                         0.009
     33       C      1       4.003          4.003                        -0.003
     34       C      1       4.007          4.007                        -0.007
     35       C      1       3.990          3.990                         0.010
     36       C      1       3.992          3.992                         0.008
     37       C      1       4.002          4.002                        -0.002
     38       C      1       4.007          4.007                        -0.007
     39       C      1       3.990          3.990                         0.010
     40       C      1       3.992          3.992                         0.008
     41       C      1       4.002          4.002                        -0.002
     42       C      1       4.006          4.006                        -0.006
     43       C      1       3.990          3.990                         0.010
     44       C      1       3.992          3.992                         0.008
     45       C      1       4.003          4.003                        -0.003
     46       C      1       4.006          4.006                        -0.006
     47       C      1       3.990          3.990                         0.010
     48       C      1       3.992          3.992                         0.008
     49       C      1       4.004          4.004                        -0.004
     50       C      1       3.992          3.992                         0.008
     51       C      1       4.002          4.002                        -0.002
     52       C      1       4.002          4.002                        -0.002
     53       C      1       4.003          4.003                        -0.003
     54       C      1       3.992          3.992                         0.008
     55       C      1       4.002          4.002                        -0.002
     56       C      1       4.003          4.003                        -0.003
     57       C      1       4.003          4.003                        -0.003
     58       C      1       3.991          3.991                         0.009
     59       C      1       4.002          4.002                        -0.002
     60       C      1       4.003          4.003                        -0.003
     61       C      1       4.003          4.003                        -0.003
     62       C      1       3.992          3.992                         0.008
     63       C      1       4.002          4.002                        -0.002
     64       C      1       4.003          4.003                        -0.003
     65       C      1       4.004          4.004                        -0.004
     66       C      1       3.992          3.992                         0.008
     67       C      1       4.002          4.002                        -0.002
     68       C      1       4.002          4.002                        -0.002
     69       C      1       4.004          4.004                        -0.004
     70       C      1       3.992          3.992                         0.008
     71       C      1       4.002          4.002                        -0.002
     72       C      1       4.002          4.002                        -0.002
     73       C      1       3.990          3.990                         0.010
     74       C      1       4.003          4.003                        -0.003
     75       C      1       4.003          4.003                        -0.003
     76       C      1       4.006          4.006                        -0.006
     77       C      1       3.990          3.990                         0.010
     78       C      1       4.003          4.003                        -0.003
     79       C      1       4.003          4.003                        -0.003
     80       C      1       4.006          4.006                        -0.006
     81       C      1       3.990          3.990                         0.010
     82       C      1       4.003          4.003                        -0.003
     83       C      1       4.003          4.003                        -0.003
     84       C      1       4.006          4.006                        -0.006
     85       C      1       3.990          3.990                         0.010
     86       C      1       4.003          4.003                        -0.003
     87       C      1       4.003          4.003                        -0.003
     88       C      1       4.006          4.006                        -0.006
     89       C      1       3.990          3.990                         0.010
     90       C      1       4.003          4.003                        -0.003
     91       C      1       4.004          4.004                        -0.004
     92       C      1       4.006          4.006                        -0.006
     93       C      1       3.990          3.990                         0.010
     94       C      1       4.002          4.002                        -0.002
     95       C      1       4.003          4.003                        -0.003
     96       C      1       4.006          4.006                        -0.006
     97       C      1       4.002          4.002                        -0.002
     98       C      1       4.006          4.006                        -0.006
     99       C      1       3.990          3.990                         0.010
    100       C      1       3.992          3.992                         0.008
    101       C      1       4.002          4.002                        -0.002
    102       C      1       4.006          4.006                        -0.006
    103       C      1       3.990          3.990                         0.010
    104       C      1       3.992          3.992                         0.008
    105       C      1       4.002          4.002                        -0.002
    106       C      1       4.006          4.006                        -0.006
    107       C      1       3.990          3.990                         0.010
    108       C      1       3.992          3.992                         0.008
    109       C      1       4.002          4.002                        -0.002
    110       C      1       4.006          4.006                        -0.006
    111       C      1       3.990          3.990                         0.010
    112       C      1       3.992          3.992                         0.008
    113       C      1       4.002          4.002                        -0.002
    114       C      1       4.006          4.006                        -0.006
    115       C      1       3.990          3.990                         0.010
    116       C      1       3.992          3.992                         0.008
    117       C      1       4.002          4.002                        -0.002
    118       C      1       4.006          4.006                        -0.006
    119       C      1       3.990          3.990                         0.010
    120       C      1       3.992          3.992                         0.008
    121       C      1       4.004          4.004                        -0.004
    122       C      1       3.992          3.992                         0.008
    123       C      1       4.002          4.002                        -0.002
    124       C      1       4.002          4.002                        -0.002
    125       C      1       4.003          4.003                        -0.003
    126       C      1       3.992          3.992                         0.008
    127       C      1       4.002          4.002                        -0.002
    128       C      1       4.003          4.003                        -0.003
    129       C      1       4.003          4.003                        -0.003
    130       C      1       3.991          3.991                         0.009
    131       C      1       4.002          4.002                        -0.002
    132       C      1       4.003          4.003                        -0.003
    133       C      1       4.004          4.004                        -0.004
    134       C      1       3.992          3.992                         0.008
    135       C      1       4.002          4.002                        -0.002
    136       C      1       4.003          4.003                        -0.003
    137       C      1       4.004          4.004                        -0.004
    138       C      1       3.991          3.991                         0.009
    139       C      1       4.002          4.002                        -0.002
    140       C      1       4.003          4.003                        -0.003
    141       C      1       4.004          4.004                        -0.004
    142       C      1       3.992          3.992                         0.008
    143       C      1       4.003          4.003                        -0.003
    144       C      1       4.002          4.002                        -0.002

  Total Charge                                                            0.087
 !-----------------------------------------------------------------------------!

 ENERGY| Total FORCE_EVAL ( QS ) energy [hartree]           -820.612656947811615

 -------------------------------------------------------------------------------
 -                                                                             -
 -                                DBCSR STATISTICS                             -
 -                                                                             -
 -------------------------------------------------------------------------------
 COUNTER                                    TOTAL       BLAS       SMM       ACC
 flops    13 x     8 x     8              1916928     100.0%      0.0%      0.0%     
 flops    32 x    40 x   288              2949120     100.0%      0.0%      0.0%     
 flops    64 x    40 x   288              5898240     100.0%      0.0%      0.0%     
 flops     8 x    40 x    40             15104000     100.0%      0.0%      0.0%     
 flops    96 x    40 x   288             17694720     100.0%      0.0%      0.0%     
 flops   364 x    40 x   288             33546240     100.0%      0.0%      0.0%     
 flops   494 x    40 x   288             45527040     100.0%      0.0%      0.0%     
 flops    32 x    40 x    40             60416000     100.0%      0.0%      0.0%     
 flops   507 x    40 x   288             93450240     100.0%      0.0%      0.0%     
 flops    64 x    40 x   328            105799680     100.0%      0.0%      0.0%     
 flops    72 x    40 x   328            119024640     100.0%      0.0%      0.0%     
 flops    32 x    32 x  1872            172523520     100.0%      0.0%      0.0%     
 flops     8 x    40 x  1872            291133440     100.0%      0.0%      0.0%     
 flops    64 x   328 x  1872            314376192     100.0%      0.0%      0.0%     
 flops    96 x    40 x   328            317399040     100.0%      0.0%      0.0%     
 flops    72 x   328 x  1872            353673216     100.0%      0.0%      0.0%     
 flops    13 x    32 x    32            375717888     100.0%      0.0%      0.0%     
 flops   364 x    40 x    40            428646400     100.0%      0.0%      0.0%     
 flops   494 x    40 x    40            581734400     100.0%      0.0%      0.0%     
 flops   364 x    40 x   328            601735680     100.0%      0.0%      0.0%     
 flops    64 x    40 x  1872            642170880     100.0%      0.0%      0.0%     
 flops    72 x    40 x  1872            679311360     100.0%      0.0%      0.0%     
 flops   494 x    40 x   328            816641280     100.0%      0.0%      0.0%     
 flops    96 x   328 x  1872            943128576     100.0%      0.0%      0.0%     
 flops    32 x    40 x  1872           1183703040     100.0%      0.0%      0.0%     
 flops   507 x    40 x    40           1194086400     100.0%      0.0%      0.0%     
 flops   507 x    40 x   328           1676263680     100.0%      0.0%      0.0%     
 flops    96 x    40 x  1872           1926512640     100.0%      0.0%      0.0%     
 flops    32 x   288 x   288           2834694144     100.0%      0.0%      0.0%     
 flops    64 x   288 x   288           5669388288     100.0%      0.0%      0.0%     
 flops    32 x   288 x  1872           8384643072     100.0%      0.0%      0.0%     
 flops    13 x     8 x    13          11021287680     100.0%      0.0%      0.0%     
 flops    64 x   288 x  1872          16769286144     100.0%      0.0%      0.0%     
 flops    96 x   288 x   288          17008164864     100.0%      0.0%      0.0%     
 flops   364 x   288 x   288          17994203136     100.0%      0.0%      0.0%     
 flops   364 x   288 x  1872          23941951488     100.0%      0.0%      0.0%     
 flops   494 x   288 x   288          24420704256     100.0%      0.0%      0.0%     
 flops   494 x   288 x  1872          32492648448     100.0%      0.0%      0.0%     
 flops    13 x    13 x   288          48900174336     100.0%      0.0%      0.0%     
 flops   507 x   288 x   288          50126708736     100.0%      0.0%      0.0%     
 flops    96 x   288 x  1872          50307858432     100.0%      0.0%      0.0%     
 flops   507 x   288 x  1872          66695436288     100.0%      0.0%      0.0%     
 flops    13 x    32 x    13         252581981184     100.0%      0.0%      0.0%     
 flops inhomo. stacks                           0       0.0%      0.0%      0.0%
 flops total                       642.149215E+09     100.0%      0.0%      0.0%
 flops max/rank                    642.149215E+09     100.0%      0.0%      0.0%
 matmuls inhomo. stacks                         0       0.0%      0.0%      0.0%
 matmuls total                           27954699     100.0%      0.0%      0.0%
 number of processed stacks                 38258     100.0%      0.0%      0.0%
 average stack size                                   730.7       0.0       0.0
 marketing flops                   797.539893E+09
 -------------------------------------------------------------------------------
 # multiplications                           3013
 max memory usage/rank              30.525624E+09
 # max total images/rank                        1
 # max 3D layers                                1
 # MPI messages exchanged                       0
 -------------------------------------------------------------------------------
 -                                                                             -
 -                      DBCSR MESSAGE PASSING PERFORMANCE                      -
 -                                                                             -
 -------------------------------------------------------------------------------
 ROUTINE             CALLS      AVE VOLUME [Bytes]
 MP_Bcast               44                     12.
 MP_Allreduce        14381                      8.
 MP_Alltoall         11210                 234925.
 MP_ISend            12024                  31965.
 MP_IRecv            12024                  31965.
 -------------------------------------------------------------------------------

 -------------------------------------------------------------------------------
 -                                                                             -
 -                                GRID STATISTICS                              -
 -                                                                             -
 -------------------------------------------------------------------------------
 LP    KERNEL             BACKEND                              COUNT     PERCENT
 4     collocate ortho    CPU                                4435920      50.41%
 4     integrate ortho    CPU                                4363200      49.58%
 0     collocate general  CPU                                    288       0.00%
 0     integrate general  CPU                                    144       0.00%
 -------------------------------------------------------------------------------

 -------------------------------------------------------------------------------
 -                                                                             -
 -                          OFFLOAD MEMPOOL STATISTICS                         -
 -                                                                             -
 -------------------------------------------------------------------------------
 Memory consumption                Number of allocations  Used [MiB]  Size [MiB]
 Device                                                6          60          60
 Host                                                  6          60          60
 -------------------------------------------------------------------------------

 MEMORY| Estimated peak process memory [MiB]                                2094

 -------------------------------------------------------------------------------
 -                                                                             -
 -                         MESSAGE PASSING PERFORMANCE                         -
 -                                                                             -
 -------------------------------------------------------------------------------

 ROUTINE             CALLS      AVE VOLUME [Bytes]
 MP_Group                4
 MP_Bcast             8855                   1262.
 MP_Allreduce        23654                   1083.
 MP_Sync               180
 MP_comm_split         111
 -------------------------------------------------------------------------------


 -------------------------------------------------------------------------------
 -                                                                             -
 -                           R E F E R E N C E S                               -
 -                                                                             -
 -------------------------------------------------------------------------------
 
 CP2K version 2026.1, the CP2K developers group (2026).
 CP2K is freely available from https://www.cp2k.org/ .
 
 T. D. Kuehne, M. Iannuzzi, M. Del Ben, V. V. Rybkin, P. Seewald, F. Stein, T. 
 Laino, R. Z. Khaliullin, O. Schuett, F. Schiffmann, D. Golze, J. Wilhelm, S. 
 Chulkov, M. H. Bani-Hashemian, V. Weber, U. Borstnik, M. Taillefumier, A. S. 
 Jakobovits, A. Lazzaro, H. Pabst, T. Mueller, R. Schade, M. Guidon, S. 
 Andermatt, N. Holmberg, G. K. Schenter, A. Hehn, A. Bussy, F. Belleflamme, G. 
 Tabacchi, A. Gloess, M. Lass, I. Bethune, C. J. Mundy, C. Plessl, M. Watkins, 
 J. VandeVondele, M. Krack, J. Hutter.
 J. Chem. Phys. 152, 194103 (2020).
 CP2K: An electronic structure and molecular dynamics software package - 
 Quickstep: Efficient and accurate electronic structure calculations.
 https://doi.org/10.1063/5.0007045

 L. Goerigk, A. Hansen, C. Bauer, S. Ehrlich, A. Najibi, S. Grimme.
 Phys. Chem. Chem. Phys. 19, 32184-32215 (2017).
 A look at the density functional theory zoo with the advanced GMTKN55 database 
 for general main group thermochemistry, kinetics and noncovalent interactions.
 https://doi.org/10.1039/C7CP04913G

 O. Schuett, P. Messmer, J. Hutter, J. VandeVondele.
 Electronic Structure Calculations on Graphics Processing Units, 173-190 (2016).
 GPU-Accelerated Sparse Matrix-Matrix Multiplication for Linear Scaling Density 
 Functional Theory.
 https://doi.org/10.1002/9781118670712.ch8

 A. Heinecke, G. Henry, M. Hutchinson, H. Pabst.
 Proceedings of Intl. Supercomputing Conference, 981-991 (2016).
 LIBXSMM: Accelerating Small Matrix Multiplications by Runtime Code Generation.
 https://doi.org/10.1109/SC.2016.83

 J. Hutter, M. Iannuzzi, F. Schiffmann, J. VandeVondele.
 WIREs Comput Mol Sci. 4, 15-25 (2014).
 CP2K: atomistic simulations of condensed matter systems.
 https://doi.org/10.1002/wcms.1159

 U. Borstnik, J. VandeVondele, V. Weber, J. Hutter.
 Parallel Comput. 40, 47-58 (2014).
 Sparse matrix multiplication: The distributed block-compressed sparse row 
 library.
 https://doi.org/10.1016/j.parco.2014.03.012

 A. Marek, V. Blum, R. Johanni, V. Havu, B. Lang, T. Auckenthaler, A. Heinecke, 
 H. Bungartz, H. Lederer.
 J. Phys. Condens. Matter 26, 213201 (2014).
 The ELPA library: scalable parallel eigenvalue solutions for electronic 
 structure theory and computational science.
 https://doi.org/10.1088/0953-8984/26/21/213201

 S. Grimme, S. Ehrlich, L. Goerigk.
 J. Comput. Chem. 32, 1456 (2011).
 Effect of the damping function in dispersion corrected density functional 
 theory.
 https://doi.org/10.1002/jcc.21759

 S. Grimme, J. Antony, S. Ehrlich, H. Krieg.
 J. Chem. Phys. 132, 154104 (2010).
 A consistent and accurate ab initio parametrization of density functional 
 dispersion correction (DFT-D) for the 94 elements H-Pu.
 https://doi.org/10.1063/1.3382344

 J. VandeVondele, J. Hutter.
 J. Chem. Phys. 127, 114105 (2007).
 Gaussian basis sets for accurate calculations on molecular systems in gas and 
 condensed phases.
 https://doi.org/10.1063/1.2770708

 J. VandeVondele, M. Krack, F. Mohamed, M. Parrinello, T. Chassaing, J. Hutter.
 Comput. Phys. Commun. 167, 103-128 (2005).
 QUICKSTEP: Fast and accurate density functional calculations using a mixed 
 Gaussian and plane waves approach.
 https://doi.org/10.1016/j.cpc.2004.12.014

 M. Krack.
 Theor. Chem. Acc. 114, 145-152 (2005).
 Pseudopotentials for H to Kr optimized for gradient-corrected 
 exchange-correlation functionals.
 https://doi.org/10.1007/s00214-005-0655-y

 M. Frigo, S. G. Johnson.
 Proc. IEEE 93, 216-231 (2005).
 The design and implementation of FFTW3.
 https://doi.org/10.1109/JPROC.2004.840301

 J. VandeVondele, J. Hutter.
 J. Chem. Phys. 118, 4365-4369 (2003).
 An efficient orbital transformation method for electronic structure 
 calculations.
 https://doi.org/10.1063/1.1543154

 C. Hartwigsen, S. Goedecker, J. Hutter.
 Phys. Rev. B 58, 3641-3662 (1998).
 Relativistic separable dual-space Gaussian pseudopotentials from H to Rn.
 https://doi.org/10.1103/PhysRevB.58.3641

 G. Lippert, J. Hutter, M. Parrinello.
 Mol. Phys. 92, 477-487 (1997).
 A hybrid Gaussian and plane wave density functional scheme.
 https://doi.org/10.1080/002689797170220

 S. Goedecker, M. Teter, J. Hutter.
 Phys. Rev. B 54, 1703-1710 (1996).
 Separable dual-space Gaussian pseudopotentials.
 https://doi.org/10.1103/PhysRevB.54.1703

 J. P. Perdew, K. Burke, M. Ernzerhof.
 Phys. Rev. Lett. 77, 3865-3868 (1996).
 Generalized gradient approximation made simple.
 https://doi.org/10.1103/PhysRevLett.77.3865


 -------------------------------------------------------------------------------
 -                                                                             -
 -                                T I M I N G                                  -
 -                                                                             -
 -------------------------------------------------------------------------------
 SUBROUTINE                       CALLS  ASD         SELF TIME        TOTAL TIME
                                MAXIMUM       AVERAGE  MAXIMUM  AVERAGE  MAXIMUM
 CP2K                                 1  1.0    0.099    0.099  750.880  750.880
 qs_energies                          1  2.0    0.004    0.004  743.482  743.482
 scf_env_do_scf                       1  3.0    0.000    0.000  712.894  712.894
 scf_env_do_scf_inner_loop           60  4.0    0.019    0.019  691.551  691.551
 qs_ks_update_qs_env                 61  5.0    0.001    0.001  444.846  444.846
 rebuild_ks_matrix                   60  6.0    0.001    0.001  442.786  442.786
 qs_ks_build_kohn_sham_matrix        60  7.0    0.040    0.040  442.785  442.785
 fft_wrap_pw1pw2                   1026 10.3    0.063    0.063  289.367  289.367
 fft_wrap_pw1pw2_80                 663 11.7   35.031   35.031  278.495  278.495
 qs_vxc_create                       60  8.0    0.005    0.005  263.396  263.396
 xc_vxc_pw_create                    60  9.0    4.424    4.424  263.391  263.391
 xc_pw_derive                       360 11.0    0.030    0.030  165.919  165.919
 fft3d_s                           1027 12.3  158.575  158.575  158.645  158.645
 qs_rho_update_rho_low               61  5.0    0.001    0.001  145.535  145.535
 calculate_rho_elec                  61  6.0    3.268    3.268  145.534  145.534
 xc_rho_set_and_dset_create          60 10.0    4.023    4.023  142.006  142.006
 sum_up_and_integrate                60  8.0    0.004    0.004  124.400  124.400
 integrate_v_rspace                  60  9.0    0.542    0.542  123.443  123.443
 dbcsr_multiply_generic            3013  9.9    1.231    1.231  119.881  119.881
 xc_pw_divergence                    60 10.0    0.008    0.008  115.249  115.249
 qs_scf_new_mos                      60  5.0    0.001    0.001  114.075  114.075
 qs_scf_loop_do_ot                   60  6.0    0.001    0.001  114.074  114.074
 ot_scf_mini                         60  7.0    0.007    0.007  105.959  105.959
 grid_integrate_task_list            60 10.0   88.941   88.941   88.941   88.941
 grid_collocate_task_list            61  7.0   80.897   80.897   80.897   80.897
 ot_mini                            185  8.0    0.005    0.005   66.480   66.480
 density_rs2pw                       61  7.0    0.018    0.018   61.369   61.369
 xc_functional_eval                  60 11.0    0.004    0.004   56.743   56.743
 pbe_lda_eval                        60 12.0   56.739   56.739   56.739   56.739
 pw_scatter_s                       541 12.7   55.980   55.980   55.980   55.980
 qs_ot_get_derivative               123  9.0    0.005    0.005   46.762   46.762
 make_m2s                          6026 10.9    0.185    0.185   46.564   46.564
 multiply_cannon                   3013 10.9    2.284    2.284   43.954   43.954
 multiply_cannon_loop              3013 11.9    3.647    3.647   39.845   39.845
 multiply_cannon_multrec           3013 12.9   36.128   36.128   36.194   36.194
 potential_pw2rs                     60 10.0    0.105    0.105   33.960   33.960
 qs_ot_get_derivative_diag          112 10.0    0.011    0.011   32.751   32.751
 pw_gather_s                        485 11.9   29.247   29.247   29.247   29.247
 make_images                       6026 11.9   12.175   12.175   24.008   24.008
 qs_ot_get_p                        190  8.0    0.004    0.004   23.163   23.163
 init_scf_loop                        1  4.0    0.000    0.000   21.328   21.328
 dbcsr_make_dense_low              7752 12.9    0.129    0.129   21.026   21.026
 make_dense_data                   7752 13.9    6.323    6.323   20.834   20.834
 scf_post_calculation_gpw             1  3.0    0.002    0.002   20.143   20.143
 write_available_results              1  4.0    0.000    0.000   20.140   20.140
 write_mo_dependent_results           1  5.0    0.001    0.001   20.018   20.018
 calculate_projected_dos              1  6.0    0.032    0.032   19.822   19.822
 ot_diis_step                        60  9.0    0.015    0.015   19.555   19.555
 dbcsr_finalize                    5392 11.5    1.738    1.738   17.783   17.783
 pw_poisson_solve                    60  8.0    0.007    0.007   17.721   17.721
 pw_derive                          540 11.3   16.316   16.316   16.316   16.316
 dbcsr_make_images_dense           5210 12.2    0.066    0.066   15.871   15.871
 dbcsr_merge_all                   5027 12.5   13.832   13.832   15.674   15.674
 qs_ot_p2m_diag                     170  9.0    0.627    0.627   15.530   15.530
 -------------------------------------------------------------------------------

 The number of warnings for this run is : 0
 
 -------------------------------------------------------------------------------
  **** **** ******  **  PROGRAM ENDED AT                 2026-06-18 22:14:49.170
 ***** ** ***  *** **   PROGRAM RAN ON                                    cyz912
 **    ****   ******    PROGRAM RAN BY                               cyzcomputer
 ***** **    ** ** **   PROGRAM PROCESS ID                                  2718
  **** **  *******  **  PROGRAM STOPPED IN /home/cyzcomputer/cp2k_i2_runs/cp2k_a
                                           dsorption_heterogeneity_check_2026061
                                           8
