 DBCSR| CPU Multiplication driver                                           BLAS (U)
 DBCSR| Multrec recursion limit                                              512 (U)
 DBCSR| Multiplication stack size                                           1000 (D)
 DBCSR| Maximum elements for images                                    UNLIMITED (U)
 DBCSR| Multiplicative factor virtual images                                   1 (U)
 DBCSR| Use multiplication densification                                       T (D)
 DBCSR| Multiplication size stacks                                             3 (U)
 DBCSR| Use memory pool for CPU allocation                                     F (U)
 DBCSR| Number of 3D layers                                               SINGLE (U)
 DBCSR| Use MPI memory allocation                                              F (U)
 DBCSR| Use RMA algorithm                                                      F (U)
 DBCSR| Use Communication thread                                               T (U)
 DBCSR| Communication thread load                                             75 (D)
 DBCSR| MPI: My process id                                                     0
 DBCSR| MPI: Number of processes                                               1
 DBCSR| OMP: Current number of threads                                         4
 DBCSR| OMP: Max number of threads                                             4
 DBCSR| Split modifier for TAS multiplication algorithm                  1.0E+00 (U)


  **** **** ******  **  PROGRAM STARTED AT               2026-06-18 21:50:34.298
 ***** ** ***  *** **   PROGRAM STARTED ON                                cyz912
 **    ****   ******    PROGRAM STARTED BY                           cyzcomputer
 ***** **    ** ** **   PROGRAM PROCESS ID                                  1649
  **** **  *******  **  PROGRAM STARTED IN /home/cyzcomputer/cp2k_i2_runs/cp2k_a
                                           dsorption_heterogeneity_check_2026061
                                           8/sp

 CP2K| version string:                                       CP2K version 2026.1
 CP2K| source code revision number:                                      dafce1f
 CP2K| cp2kflags: omp libint fftw3 libxc elpa parallel scalapack mpi_f08 xsmm pl
 CP2K|            umed2 spglib sirius libtorch hdf5 trexio
 CP2K| is freely available from                            https://www.cp2k.org/
 CP2K| Program compiled at                                   2026-05-26 14:43:38
 CP2K| Program compiled on                                                      
 CP2K| Program compiled for                                               x86_64
 CP2K| Data directory path    /home/cyzcomputer/micromamba/envs/cp2k_i2/share/cp
 CP2K| Input file name                                    i2_reference_d3_sp.inp

 GLOBAL| Force Environment number                                              1
 GLOBAL| Basis set file name            /home/cyzcomputer/micromamba/envs/cp2k_i
 GLOBAL| Potential file name            /home/cyzcomputer/micromamba/envs/cp2k_i
 GLOBAL| MM Potential file name                                     MM_POTENTIAL
 GLOBAL| Coordinate file name                                      __STD_INPUT__
 GLOBAL| Method name                                                        CP2K
 GLOBAL| Project name                                         i2_reference_d3_sp
 GLOBAL| Run type                                                         ENERGY
 GLOBAL| FFT library                                                       FFTW3
 GLOBAL| Diagonalization library                                            ELPA
 GLOBAL| Cholesky decomposition library                                ScaLAPACK
 GLOBAL| DGEMM library                                                      BLAS
 GLOBAL| Minimum number of eigenvectors for ELPA usage                        16
 GLOBAL| Orthonormality check for eigenvectors                          DISABLED
 GLOBAL| Matrix multiplication library                                 ScaLAPACK
 GLOBAL| All-to-all communication in single precision                          F
 GLOBAL| FFTs using library dependent lengths                                  F
 GLOBAL| Grid backend                                                       AUTO
 GLOBAL| Global print level                                                  LOW
 GLOBAL| MPI I/O enabled                                                       T
 GLOBAL| Total number of message passing processes                             1
 GLOBAL| Number of distributed systems (nodes)                                 1
 GLOBAL| Number of threads for this process                                    4
 GLOBAL| This output is from process                                           0
 GLOBAL| OpenMP stack size per thread (OMP_STACKSIZE)                    default
 GLOBAL| CPU model name                    13th Gen Intel(R) Core(TM) i9-13900HX
 GLOBAL| CPUID                                                              1002

 MEMORY| system memory details [Kb]
 MEMORY|                        rank 0           min           max       average
 MEMORY| MemTotal              7993344       7993344       7993344       7993344
 MEMORY| MemFree               6480952       6480952       6480952       6480952
 MEMORY| Buffers                 65932         65932         65932         65932
 MEMORY| Cached                 691992        691992        691992        691992
 MEMORY| Slab                   164244        164244        164244        164244
 MEMORY| SReclaimable            44376         44376         44376         44376
 MEMORY| MemLikelyFree         7283252       7283252       7283252       7283252


 GENERATE|  Preliminary Number of Bonds generated:                             0
 GENERATE|  Achieved consistency in connectivity generation.

 *******************************************************************************
 *******************************************************************************
 **                                                                           **
 **     #####                         ##              ##                      **
 **    ##   ##            ##          ##              ##                      **
 **   ##     ##                       ##            ######                    **
 **   ##     ##  ##   ##  ##   #####  ##  ##   ####   ##    #####    #####    **
 **   ##     ##  ##   ##  ##  ##      ## ##   ##      ##   ##   ##  ##   ##   **
 **   ##  ## ##  ##   ##  ##  ##      ####     ###    ##   ######   ######    **
 **    ##  ###   ##   ##  ##  ##      ## ##      ##   ##   ##       ##        **
 **     #######   #####   ##   #####  ##  ##  ####    ##    #####   ##        **
 **           ##                                                    ##        **
 **                                                                           **
 **                                                ... make the atoms dance   **
 **                                                                           **
 **            Copyright (C) by CP2K developers group (2000-2026)             **
 **                      J. Chem. Phys. 152, 194103 (2020)                    **
 **                                                                           **
 *******************************************************************************


 TOTAL NUMBERS AND MAXIMUM NUMBERS

  Total number of            - Atomic kinds:                                   1
                             - Atoms:                                          2
                             - Shell sets:                                     2
                             - Shells:                                        10
                             - Primitive Cartesian functions:                 10
                             - Cartesian basis functions:                     28
                             - Spherical basis functions:                     26

  Maximum angular momentum of- Orbital basis functions:                        2
                             - Local part of the GTH pseudopotential:          0
                             - Non-local part of the GTH pseudopotential:      4


 SCF PARAMETERS         Density guess:                                    ATOMIC
                        --------------------------------------------------------
                        max_scf:                                             260
                        max_scf_history:                                       0
                        max_diis:                                              4
                        --------------------------------------------------------
                        eps_scf:                                        1.00E-05
                        eps_scf_history:                                0.00E+00
                        eps_diis:                                       0.00E+00
                        eps_eigval:                                     1.00E-05
                        --------------------------------------------------------
                        level_shift [a.u.]:                             0.000000
                        --------------------------------------------------------
                        Outer loop SCF in use 
                        No variables optimised in outer loop
                        eps_scf                                         1.00E-05
                        max_scf                                               10
                        No outer loop optimization
                        step_size                                       5.00E-01

 Extrapolation method: initial_guess

 Number of electrons:                                                         14
 Number of occupied orbitals:                                                  7
 Number of molecular orbitals:                                                 7

 Number of orbital functions:                                                 26
 Number of independent orbital functions:                                     26


 SCF WAVEFUNCTION OPTIMIZATION

  ----------------------------------- OT ---------------------------------------
  Minimizer      : DIIS                : direct inversion
                                         in the iterative subspace
                                         using   7 DIIS vectors
                                         safer DIIS on
  Preconditioner : FULL_SINGLE_INVERSE : inversion of 
                                         H + eS - 2*(Sc)(c^T*H*c+const)(Sc)^T
  Precond_solver : DEFAULT
  stepsize       :    0.08000000                  energy_gap     :    0.08000000
  eps_taylor     :   0.10000E-15                  max_taylor     :             4
  ----------------------------------- OT ---------------------------------------

  Step     Update method      Time    Convergence         Total energy    Change
  ------------------------------------------------------------------------------
     1 OT DIIS     0.80E-01   10.1     0.18606985       -22.5976924060 -2.26E+01
     2 OT DIIS     0.80E-01   11.0     0.13120207       -22.7676623589 -1.70E-01
     3 OT DIIS     0.80E-01   10.5     0.04458917       -22.8692189993 -1.02E-01
     4 OT DIIS     0.80E-01    9.1     0.02998617       -22.8944288657 -2.52E-02
     5 OT DIIS     0.80E-01    9.6     0.04275535       -22.9018063946 -7.38E-03
     6 OT DIIS     0.80E-01    9.6     0.01001094       -22.9157930372 -1.40E-02
     7 OT DIIS     0.80E-01    9.0     0.00869022       -22.9166414012 -8.48E-04
     8 OT DIIS     0.80E-01    9.6     0.01205286       -22.9172377029 -5.96E-04
     9 OT DIIS     0.80E-01    9.3     0.00278374       -22.9178380820 -6.00E-04
    10 OT DIIS     0.80E-01   11.1     0.00146161       -22.9179728253 -1.35E-04
    11 OT DIIS     0.80E-01   10.9     0.00115484       -22.9180298372 -5.70E-05
    12 OT DIIS     0.80E-01   12.6     0.00029098       -22.9180405458 -1.07E-05
    13 OT DIIS     0.80E-01   10.1     0.00015442       -22.9180419510 -1.41E-06
    14 OT DIIS     0.80E-01   10.8     0.00006481       -22.9180424941 -5.43E-07
    15 OT DIIS     0.80E-01   10.1     0.00004722       -22.9180425423 -4.82E-08
    16 OT DIIS     0.80E-01   10.6     0.00002901       -22.9180425807 -3.85E-08
    17 OT DIIS     0.80E-01   10.7     0.00001077       -22.9180426018 -2.10E-08
    18 OT DIIS     0.80E-01    9.8     0.00000413       -22.9180426047 -2.95E-09

  *** SCF run converged in    18 steps ***


  Electronic density on regular grids:        -14.0000000000       -0.0000000000
  Core density on regular grids:               13.9999999970       -0.0000000030
  Total charge density on r-space grids:       -0.0000000031
  Total charge density g-space grids:          -0.0000000031

  Overlap energy of the core charge distribution:               0.00000000071026
  Self energy of the core charge distribution:                -49.36658856042867
  Core Hamiltonian energy:                                      9.83784287351343
  Hartree energy:                                              21.08062822465957
  Exchange-correlation energy:                                 -4.46815950895007
  Dispersion energy:                                           -0.00176563424397

  Total energy:                                               -22.91804260473944

  outer SCF iter =    1 RMS gradient =   0.41E-05 energy =        -22.9180426047
  outer SCF loop converged in   1 iterations or   18 steps


 ENERGY| Total FORCE_EVAL ( QS ) energy [hartree]            -22.918042604739444

 -------------------------------------------------------------------------------
 -                                                                             -
 -                                DBCSR STATISTICS                             -
 -                                                                             -
 -------------------------------------------------------------------------------
 COUNTER                                    TOTAL       BLAS       SMM       ACC
 flops     7 x     7 x     7               107016     100.0%      0.0%      0.0%     
 flops    13 x    13 x     7               141960     100.0%      0.0%      0.0%     
 flops    13 x     7 x    26               179816     100.0%      0.0%      0.0%     
 flops     7 x     7 x    26               183456     100.0%      0.0%      0.0%     
 flops    13 x     7 x     7               229320     100.0%      0.0%      0.0%     
 flops    13 x     7 x    13               406952     100.0%      0.0%      0.0%     
 flops inhomo. stacks                           0       0.0%      0.0%      0.0%
 flops total                         1.248520E+06     100.0%      0.0%      0.0%
 flops max/rank                      1.248520E+06     100.0%      0.0%      0.0%
 matmuls inhomo. stacks                         0       0.0%      0.0%      0.0%
 matmuls total                                678     100.0%      0.0%      0.0%
 number of processed stacks                   572     100.0%      0.0%      0.0%
 average stack size                                     1.2       0.0       0.0
 marketing flops                     1.298388E+06
 -------------------------------------------------------------------------------
 # multiplications                            401
 max memory usage/rank              30.782607E+09
 # max total images/rank                        1
 # max 3D layers                                1
 # MPI messages exchanged                       0
 -------------------------------------------------------------------------------
 -                                                                             -
 -                      DBCSR MESSAGE PASSING PERFORMANCE                      -
 -                                                                             -
 -------------------------------------------------------------------------------
 ROUTINE             CALLS      AVE VOLUME [Bytes]
 MP_Bcast                7                     12.
 MP_Allreduce         1947                      8.
 MP_Alltoall          1467                    250.
 MP_ISend             1600                     33.
 MP_IRecv             1600                     33.
 -------------------------------------------------------------------------------

 -------------------------------------------------------------------------------
 -                                                                             -
 -                                GRID STATISTICS                              -
 -                                                                             -
 -------------------------------------------------------------------------------
 LP    KERNEL             BACKEND                              COUNT     PERCENT
 4     collocate ortho    CPU                                   1425      51.31%
 4     integrate ortho    CPU                                   1350      48.61%
 0     collocate general  CPU                                      2       0.07%
 -------------------------------------------------------------------------------

 -------------------------------------------------------------------------------
 -                                                                             -
 -                          OFFLOAD MEMPOOL STATISTICS                         -
 -                                                                             -
 -------------------------------------------------------------------------------
 Memory consumption                Number of allocations  Used [MiB]  Size [MiB]
 Device                                                6          56          56
 Host                                                  6          56          56
 -------------------------------------------------------------------------------

 MEMORY| Estimated peak process memory [MiB]                                2183

 -------------------------------------------------------------------------------
 -                                                                             -
 -                         MESSAGE PASSING PERFORMANCE                         -
 -                                                                             -
 -------------------------------------------------------------------------------

 ROUTINE             CALLS      AVE VOLUME [Bytes]
 MP_Group                4
 MP_Bcast              340                   4360.
 MP_Allreduce         1145                     70.
 MP_Sync                23
 MP_comm_split          19
 -------------------------------------------------------------------------------


 -------------------------------------------------------------------------------
 -                                                                             -
 -                           R E F E R E N C E S                               -
 -                                                                             -
 -------------------------------------------------------------------------------
 
 CP2K version 2026.1, the CP2K developers group (2026).
 CP2K is freely available from https://www.cp2k.org/ .
 
 T. D. Kuehne, M. Iannuzzi, M. Del Ben, V. V. Rybkin, P. Seewald, F. Stein, T. 
 Laino, R. Z. Khaliullin, O. Schuett, F. Schiffmann, D. Golze, J. Wilhelm, S. 
 Chulkov, M. H. Bani-Hashemian, V. Weber, U. Borstnik, M. Taillefumier, A. S. 
 Jakobovits, A. Lazzaro, H. Pabst, T. Mueller, R. Schade, M. Guidon, S. 
 Andermatt, N. Holmberg, G. K. Schenter, A. Hehn, A. Bussy, F. Belleflamme, G. 
 Tabacchi, A. Gloess, M. Lass, I. Bethune, C. J. Mundy, C. Plessl, M. Watkins, 
 J. VandeVondele, M. Krack, J. Hutter.
 J. Chem. Phys. 152, 194103 (2020).
 CP2K: An electronic structure and molecular dynamics software package - 
 Quickstep: Efficient and accurate electronic structure calculations.
 https://doi.org/10.1063/5.0007045

 L. Goerigk, A. Hansen, C. Bauer, S. Ehrlich, A. Najibi, S. Grimme.
 Phys. Chem. Chem. Phys. 19, 32184-32215 (2017).
 A look at the density functional theory zoo with the advanced GMTKN55 database 
 for general main group thermochemistry, kinetics and noncovalent interactions.
 https://doi.org/10.1039/C7CP04913G

 O. Schuett, P. Messmer, J. Hutter, J. VandeVondele.
 Electronic Structure Calculations on Graphics Processing Units, 173-190 (2016).
 GPU-Accelerated Sparse Matrix-Matrix Multiplication for Linear Scaling Density 
 Functional Theory.
 https://doi.org/10.1002/9781118670712.ch8

 A. Heinecke, G. Henry, M. Hutchinson, H. Pabst.
 Proceedings of Intl. Supercomputing Conference, 981-991 (2016).
 LIBXSMM: Accelerating Small Matrix Multiplications by Runtime Code Generation.
 https://doi.org/10.1109/SC.2016.83

 J. Hutter, M. Iannuzzi, F. Schiffmann, J. VandeVondele.
 WIREs Comput Mol Sci. 4, 15-25 (2014).
 CP2K: atomistic simulations of condensed matter systems.
 https://doi.org/10.1002/wcms.1159

 U. Borstnik, J. VandeVondele, V. Weber, J. Hutter.
 Parallel Comput. 40, 47-58 (2014).
 Sparse matrix multiplication: The distributed block-compressed sparse row 
 library.
 https://doi.org/10.1016/j.parco.2014.03.012

 A. Marek, V. Blum, R. Johanni, V. Havu, B. Lang, T. Auckenthaler, A. Heinecke, 
 H. Bungartz, H. Lederer.
 J. Phys. Condens. Matter 26, 213201 (2014).
 The ELPA library: scalable parallel eigenvalue solutions for electronic 
 structure theory and computational science.
 https://doi.org/10.1088/0953-8984/26/21/213201

 S. Grimme, S. Ehrlich, L. Goerigk.
 J. Comput. Chem. 32, 1456 (2011).
 Effect of the damping function in dispersion corrected density functional 
 theory.
 https://doi.org/10.1002/jcc.21759

 S. Grimme, J. Antony, S. Ehrlich, H. Krieg.
 J. Chem. Phys. 132, 154104 (2010).
 A consistent and accurate ab initio parametrization of density functional 
 dispersion correction (DFT-D) for the 94 elements H-Pu.
 https://doi.org/10.1063/1.3382344

 J. VandeVondele, J. Hutter.
 J. Chem. Phys. 127, 114105 (2007).
 Gaussian basis sets for accurate calculations on molecular systems in gas and 
 condensed phases.
 https://doi.org/10.1063/1.2770708

 J. VandeVondele, M. Krack, F. Mohamed, M. Parrinello, T. Chassaing, J. Hutter.
 Comput. Phys. Commun. 167, 103-128 (2005).
 QUICKSTEP: Fast and accurate density functional calculations using a mixed 
 Gaussian and plane waves approach.
 https://doi.org/10.1016/j.cpc.2004.12.014

 M. Krack.
 Theor. Chem. Acc. 114, 145-152 (2005).
 Pseudopotentials for H to Kr optimized for gradient-corrected 
 exchange-correlation functionals.
 https://doi.org/10.1007/s00214-005-0655-y

 M. Frigo, S. G. Johnson.
 Proc. IEEE 93, 216-231 (2005).
 The design and implementation of FFTW3.
 https://doi.org/10.1109/JPROC.2004.840301

 J. VandeVondele, J. Hutter.
 J. Chem. Phys. 118, 4365-4369 (2003).
 An efficient orbital transformation method for electronic structure 
 calculations.
 https://doi.org/10.1063/1.1543154

 C. Hartwigsen, S. Goedecker, J. Hutter.
 Phys. Rev. B 58, 3641-3662 (1998).
 Relativistic separable dual-space Gaussian pseudopotentials from H to Rn.
 https://doi.org/10.1103/PhysRevB.58.3641

 G. Lippert, J. Hutter, M. Parrinello.
 Mol. Phys. 92, 477-487 (1997).
 A hybrid Gaussian and plane wave density functional scheme.
 https://doi.org/10.1080/002689797170220

 S. Goedecker, M. Teter, J. Hutter.
 Phys. Rev. B 54, 1703-1710 (1996).
 Separable dual-space Gaussian pseudopotentials.
 https://doi.org/10.1103/PhysRevB.54.1703

 J. P. Perdew, K. Burke, M. Ernzerhof.
 Phys. Rev. Lett. 77, 3865-3868 (1996).
 Generalized gradient approximation made simple.
 https://doi.org/10.1103/PhysRevLett.77.3865


 -------------------------------------------------------------------------------
 -                                                                             -
 -                                T I M I N G                                  -
 -                                                                             -
 -------------------------------------------------------------------------------
 SUBROUTINE                       CALLS  ASD         SELF TIME        TOTAL TIME
                                MAXIMUM       AVERAGE  MAXIMUM  AVERAGE  MAXIMUM
 CP2K                                 1  1.0    0.422    0.422  195.981  195.981
 qs_energies                          1  2.0    0.002    0.002  190.044  190.044
 scf_env_do_scf                       1  3.0    0.001    0.001  186.017  186.017
 scf_env_do_scf_inner_loop           18  4.0    0.004    0.004  176.006  176.006
 qs_ks_update_qs_env                 19  5.0    0.000    0.000  148.136  148.136
 rebuild_ks_matrix                   18  6.0    0.000    0.000  148.134  148.134
 qs_ks_build_kohn_sham_matrix        18  7.0    0.008    0.008  148.134  148.134
 fft_wrap_pw1pw2                    312 10.2    0.014    0.014  138.459  138.459
 fft_wrap_pw1pw2_80                 201 11.7   19.388   19.388  133.583  133.583
 qs_vxc_create                       18  8.0    0.004    0.004  108.455  108.455
 xc_vxc_pw_create                    18  9.0    2.253    2.253  108.451  108.451
 xc_pw_derive                       108 11.0    0.003    0.003   77.249   77.249
 fft3d_s                            313 12.2   71.848   71.848   71.866   71.866
 xc_rho_set_and_dset_create          18 10.0    3.678    3.678   55.081   55.081
 xc_pw_divergence                    18 10.0    0.003    0.003   50.419   50.419
 qs_rho_update_rho_low               19  5.0    0.000    0.000   33.908   33.908
 calculate_rho_elec                  19  6.0    1.358    1.358   33.907   33.907
 pw_scatter_s                       163 12.7   30.976   30.976   30.976   30.976
 density_rs2pw                       19  7.0    0.003    0.003   30.254   30.254
 sum_up_and_integrate                18  8.0    0.001    0.001   16.482   16.482
 integrate_v_rspace                  18  9.0    0.048    0.048   16.177   16.177
 potential_pw2rs                     18 10.0    0.044    0.044   15.762   15.762
 pw_gather_s                        149 11.8   12.294   12.294   12.294   12.294
 xc_functional_eval                  18 11.0    0.001    0.001   11.248   11.248
 pbe_lda_eval                        18 12.0   11.248   11.248   11.248   11.248
 pw_poisson_solve                    18  8.0    0.003    0.003   10.145   10.145
 init_scf_loop                        1  4.0    0.000    0.000   10.006   10.006
 pw_derive                          162 11.3    6.421    6.421    6.421    6.421
 qs_scf_new_mos                      18  5.0    0.000    0.000    6.147    6.147
 qs_scf_loop_do_ot                   18  6.0    0.000    0.000    6.147    6.147
 ot_scf_mini                         18  7.0    0.001    0.001    5.883    5.883
 pw_copy                            270 10.5    5.750    5.750    5.750    5.750
 dbcsr_multiply_generic             401 10.1    0.139    0.139    5.504    5.504
 qs_init_subsys                       1  2.0    0.009    0.009    5.346    5.346
 qs_env_setup                         1  3.0    0.002    0.002    5.279    5.279
 qs_env_rebuild_pw_env                2  3.5    0.000    0.000    5.276    5.276
 pw_env_rebuild                       1  5.0    0.004    0.004    5.276    5.276
 pw_grid_setup                        4  6.0    0.000    0.000    5.271    5.271
 pw_grid_setup_internal               4  7.0    0.035    0.035    5.271    5.271
 pw_grid_sort                         4  8.0    4.112    4.112    4.824    4.824
 pw_poisson_set                      19  8.8    0.002    0.002    4.366    4.366
 pw_integral_ab_c1d_c1d_gs           18  9.0    3.937    3.937    3.937    3.937
 -------------------------------------------------------------------------------

 The number of warnings for this run is : 0
 
 -------------------------------------------------------------------------------
  **** **** ******  **  PROGRAM ENDED AT                 2026-06-18 21:54:43.913
 ***** ** ***  *** **   PROGRAM RAN ON                                    cyz912
 **    ****   ******    PROGRAM RAN BY                               cyzcomputer
 ***** **    ** ** **   PROGRAM PROCESS ID                                  1649
  **** **  *******  **  PROGRAM STOPPED IN /home/cyzcomputer/cp2k_i2_runs/cp2k_a
                                           dsorption_heterogeneity_check_2026061
                                           8/sp
