 DBCSR| CPU Multiplication driver                                           BLAS (U)
 DBCSR| Multrec recursion limit                                              512 (U)
 DBCSR| Multiplication stack size                                           1000 (D)
 DBCSR| Maximum elements for images                                    UNLIMITED (U)
 DBCSR| Multiplicative factor virtual images                                   1 (U)
 DBCSR| Use multiplication densification                                       T (D)
 DBCSR| Multiplication size stacks                                             3 (U)
 DBCSR| Use memory pool for CPU allocation                                     F (U)
 DBCSR| Number of 3D layers                                               SINGLE (U)
 DBCSR| Use MPI memory allocation                                              F (U)
 DBCSR| Use RMA algorithm                                                      F (U)
 DBCSR| Use Communication thread                                               T (U)
 DBCSR| Communication thread load                                             83 (D)
 DBCSR| MPI: My process id                                                     0
 DBCSR| MPI: Number of processes                                              16
 DBCSR| OMP: Current number of threads                                         2
 DBCSR| OMP: Max number of threads                                             2
 DBCSR| Split modifier for TAS multiplication algorithm                  1.0E+00 (U)


  **** **** ******  **  PROGRAM STARTED AT               2026-06-19 15:29:51.385
 ***** ** ***  *** **   PROGRAM STARTED ON         ip-172-31-14-159.ec2.internal
 **    ****   ******    PROGRAM STARTED BY                             <unknown>
 ***** **    ** ** **   PROGRAM PROCESS ID                                  5521
  **** **  *******  **  PROGRAM STARTED IN /opt/cp2k_i2/cp2k_adsorption_heteroge
                                           neity

 CP2K| version string:                                       CP2K version 2026.1
 CP2K| source code revision number:                                      aceff1c
 CP2K| cp2kflags: omp libint fftw3 libxc parallel scalapack mpi_f08 cosma xsmm p
 CP2K|            lumed2 spglib sirius libtorch hdf5 trexio
 CP2K| is freely available from                            https://www.cp2k.org/
 CP2K| Program compiled at                                   2026-06-16 16:35:48
 CP2K| Program compiled on                                                      
 CP2K| Program compiled for                                               x86_64
 CP2K| Data directory path                      /opt/cp2k_i2/env/share/cp2k/data
 CP2K| Input file name        cp2k_inputs/sp/OH_functionalized_basal_periodic_sl

 GLOBAL| Force Environment number                                              1
 GLOBAL| Basis set file name            /opt/cp2k_i2/env/share/cp2k/data/BASIS_M
 GLOBAL| Potential file name            /opt/cp2k_i2/env/share/cp2k/data/GTH_POT
 GLOBAL| MM Potential file name                                     MM_POTENTIAL
 GLOBAL| Coordinate file name                                      __STD_INPUT__
 GLOBAL| Method name                                                        CP2K
 GLOBAL| Project name                   OH_functionalized_basal_periodic_slab_ba
 GLOBAL| Run type                                                         ENERGY
 GLOBAL| FFT library                                                       FFTW3
 GLOBAL| Diagonalization library                                       ScaLAPACK
 GLOBAL| Cholesky decomposition library                                ScaLAPACK
 GLOBAL| DGEMM library                                                      BLAS
 GLOBAL| Orthonormality check for eigenvectors                          DISABLED
 GLOBAL| Matrix multiplication library                                     COSMA
 GLOBAL| All-to-all communication in single precision                          F
 GLOBAL| FFTs using library dependent lengths                                  F
 GLOBAL| Grid backend                                                       AUTO
 GLOBAL| Global print level                                                  LOW
 GLOBAL| MPI I/O enabled                                                       T
 GLOBAL| Total number of message passing processes                            16
 GLOBAL| Number of distributed systems (nodes)                                 1
 GLOBAL| Number of threads for this process                                    2
 GLOBAL| This output is from process                                           0
 GLOBAL| OpenMP stack size per thread (OMP_STACKSIZE)                    default
 GLOBAL| CPU model name                                            AMD EPYC 9R14
 GLOBAL| CPUID                                                              1003
 GLOBAL| Compiled for CPUID                                                 1002

 *** HINT in environment.F:960 :: The compiler target flags (x86_avx2)     ***
 *** used to build this binary cannot exploit all extensions of this CPU   ***
 *** model (x86_avx512). Consider compiler target flags as part of FCFLAGS ***
 *** and CFLAGS (ARCH file).                                               ***


 MEMORY| system memory details [Kb]
 MEMORY|                        rank 0           min           max       average
 MEMORY| MemTotal             64430560      64430560      64430560      64430560
 MEMORY| MemFree              56765232      56765232      56765232      56765232
 MEMORY| Buffers                  3172          3172          3172          3172
 MEMORY| Cached                4194592       4194592       4194592       4194592
 MEMORY| Slab                   302940        302940        302940        302940
 MEMORY| SReclaimable           114960        114960        114960        114960
 MEMORY| MemLikelyFree        61077956      61077956      61077956      61077956


 GENERATE|  Preliminary Number of Bonds generated:                             0
 GENERATE|  Achieved consistency in connectivity generation.

 *******************************************************************************
 *******************************************************************************
 **                                                                           **
 **     #####                         ##              ##                      **
 **    ##   ##            ##          ##              ##                      **
 **   ##     ##                       ##            ######                    **
 **   ##     ##  ##   ##  ##   #####  ##  ##   ####   ##    #####    #####    **
 **   ##     ##  ##   ##  ##  ##      ## ##   ##      ##   ##   ##  ##   ##   **
 **   ##  ## ##  ##   ##  ##  ##      ####     ###    ##   ######   ######    **
 **    ##  ###   ##   ##  ##  ##      ## ##      ##   ##   ##       ##        **
 **     #######   #####   ##   #####  ##  ##  ####    ##    #####   ##        **
 **           ##                                                    ##        **
 **                                                                           **
 **                                                ... make the atoms dance   **
 **                                                                           **
 **            Copyright (C) by CP2K developers group (2000-2026)             **
 **                      J. Chem. Phys. 152, 194103 (2020)                    **
 **                                                                           **
 *******************************************************************************


 TOTAL NUMBERS AND MAXIMUM NUMBERS

  Total number of            - Atomic kinds:                                   3
                             - Atoms:                                        147
                             - Shell sets:                                   147
                             - Shells:                                       731
                             - Primitive Cartesian functions:                735
                             - Cartesian basis functions:                   2040
                             - Spherical basis functions:                   1895

  Maximum angular momentum of- Orbital basis functions:                        2
                             - Local part of the GTH pseudopotential:          2
                             - Non-local part of the GTH pseudopotential:      0


 SCF PARAMETERS         Density guess:                                    ATOMIC
                        --------------------------------------------------------
                        max_scf:                                             260
                        max_scf_history:                                       0
                        max_diis:                                              4
                        --------------------------------------------------------
                        eps_scf:                                        1.00E-05
                        eps_scf_history:                                0.00E+00
                        eps_diis:                                       0.00E+00
                        eps_eigval:                                     1.00E-05
                        --------------------------------------------------------
                        level_shift [a.u.]:                             0.000000
                        --------------------------------------------------------
                        Outer loop SCF in use 
                        No variables optimised in outer loop
                        eps_scf                                         1.00E-05
                        max_scf                                               10
                        No outer loop optimization
                        step_size                                       5.00E-01

 Extrapolation method: initial_guess

 Number of electrons:                                                        584
 Number of occupied orbitals:                                                292
 Number of molecular orbitals:                                               292

 Number of orbital functions:                                               1895
 Number of independent orbital functions:                                   1895


 SCF WAVEFUNCTION OPTIMIZATION

  ----------------------------------- OT ---------------------------------------
  Minimizer      : DIIS                : direct inversion
                                         in the iterative subspace
                                         using   7 DIIS vectors
                                         safer DIIS on
  Preconditioner : FULL_SINGLE_INVERSE : inversion of 
                                         H + eS - 2*(Sc)(c^T*H*c+const)(Sc)^T
  Precond_solver : DEFAULT
  stepsize       :    0.08000000                  energy_gap     :    0.08000000
  eps_taylor     :   0.10000E-15                  max_taylor     :             4
  ----------------------------------- OT ---------------------------------------

  Step     Update method      Time    Convergence         Total energy    Change
  ------------------------------------------------------------------------------
     1 OT DIIS     0.80E-01    0.5     0.02493778      -783.2946712744 -7.83E+02
     2 OT DIIS     0.80E-01    0.4     0.03712258      -799.1263184339 -1.58E+01
     3 OT DIIS     0.80E-01    0.4     0.01892355      -808.2816670510 -9.16E+00
     4 OT DIIS     0.80E-01    0.4     0.01359714      -822.4181548888 -1.41E+01
     5 OT DIIS     0.80E-01    0.4     0.00772740      -830.8119546591 -8.39E+00
     6 OT DIIS     0.80E-01    0.4     0.00554097      -833.1027640539 -2.29E+00
     7 OT DIIS     0.80E-01    0.4     0.00363670      -835.0088261866 -1.91E+00
     8 OT DIIS     0.80E-01    0.4     0.00265326      -835.8851598254 -8.76E-01
     9 OT DIIS     0.80E-01    0.4     0.00193005      -836.4616736885 -5.77E-01
    10 OT DIIS     0.80E-01    0.4     0.00144475      -836.8149517028 -3.53E-01
    11 OT DIIS     0.80E-01    0.4     0.00110722      -837.0522658166 -2.37E-01
    12 OT DIIS     0.80E-01    0.4     0.00085906      -837.1920159383 -1.40E-01
    13 OT DIIS     0.80E-01    0.4     0.00067795      -837.2963079493 -1.04E-01
    14 OT DIIS     0.80E-01    0.4     0.00052270      -837.3668175709 -7.05E-02
    15 OT DIIS     0.80E-01    0.4     0.00041813      -837.4142709004 -4.75E-02
    16 OT DIIS     0.80E-01    0.4     0.00034129      -837.4447522299 -3.05E-02
    17 OT DIIS     0.80E-01    0.4     0.00028211      -837.4654282154 -2.07E-02
    18 OT DIIS     0.80E-01    0.4     0.00024084      -837.4800038892 -1.46E-02
    19 OT DIIS     0.80E-01    0.4     0.00020439      -837.4916240207 -1.16E-02
    20 OT DIIS     0.80E-01    0.4     0.00017623      -837.5003845436 -8.76E-03
    21 OT DIIS     0.80E-01    0.4     0.00015267      -837.5069754558 -6.59E-03
    22 OT DIIS     0.80E-01    0.4     0.00013082      -837.5128834776 -5.91E-03
    23 OT DIIS     0.80E-01    0.4     0.00011373      -837.5170084483 -4.12E-03
    24 OT DIIS     0.80E-01    0.4     0.00010095      -837.5199815164 -2.97E-03
    25 OT DIIS     0.80E-01    0.4     0.00008665      -837.5227465863 -2.77E-03
    26 OT DIIS     0.80E-01    0.4     0.00007647      -837.5247698999 -2.02E-03
    27 OT DIIS     0.80E-01    0.4     0.00006832      -837.5261283237 -1.36E-03
    28 OT DIIS     0.80E-01    0.4     0.00006116      -837.5273246932 -1.20E-03
    29 OT DIIS     0.80E-01    0.4     0.00005544      -837.5282556992 -9.31E-04
    30 OT DIIS     0.80E-01    0.4     0.00005050      -837.5290333122 -7.78E-04
    31 OT DIIS     0.80E-01    0.4     0.00004678      -837.5296230255 -5.90E-04
    32 OT DIIS     0.80E-01    0.4     0.00004339      -837.5301275187 -5.04E-04
    33 OT DIIS     0.80E-01    0.4     0.00003961      -837.5307130514 -5.86E-04
    34 OT DIIS     0.80E-01    0.4     0.00003716      -837.5310693092 -3.56E-04
    35 OT DIIS     0.80E-01    0.4     0.00003485      -837.5314125551 -3.43E-04
    36 OT DIIS     0.80E-01    0.4     0.00003250      -837.5317616052 -3.49E-04
    37 OT DIIS     0.80E-01    0.4     0.00003062      -837.5320473603 -2.86E-04
    38 OT DIIS     0.80E-01    0.4     0.00002892      -837.5323105745 -2.63E-04
    39 OT DIIS     0.80E-01    0.4     0.00002746      -837.5325331135 -2.23E-04
    40 OT DIIS     0.80E-01    0.4     0.00002601      -837.5327799341 -2.47E-04
    41 OT DIIS     0.80E-01    0.4     0.00002472      -837.5329870066 -2.07E-04
    42 OT DIIS     0.80E-01    0.4     0.00002378      -837.5331535265 -1.67E-04
    43 OT DIIS     0.80E-01    0.4     0.00002274      -837.5333366682 -1.83E-04
    44 OT DIIS     0.80E-01    0.4     0.00002190      -837.5335071691 -1.71E-04
    45 OT DIIS     0.80E-01    0.4     0.00002121      -837.5336479664 -1.41E-04
    46 OT DIIS     0.80E-01    0.4     0.00002047      -837.5338050892 -1.57E-04
    47 OT DIIS     0.80E-01    0.4     0.00001985      -837.5339657611 -1.61E-04
    48 OT DIIS     0.80E-01    0.4     0.00001935      -837.5340935497 -1.28E-04
    49 OT DIIS     0.80E-01    0.4     0.00001892      -837.5342155608 -1.22E-04
    50 OT DIIS     0.80E-01    0.4     0.00001846      -837.5343516263 -1.36E-04
    51 OT DIIS     0.80E-01    0.4     0.00001803      -837.5345015502 -1.50E-04
    52 OT DIIS     0.80E-01    0.4     0.00001773      -837.5346052422 -1.04E-04
    53 OT DIIS     0.80E-01    0.4     0.00001737      -837.5347290389 -1.24E-04
    54 OT DIIS     0.80E-01    0.4     0.00001698      -837.5348973137 -1.68E-04
    55 OT DIIS     0.80E-01    0.4     0.00001676      -837.5350091848 -1.12E-04
    56 OT DIIS     0.80E-01    0.4     0.00001655      -837.5350889018 -7.97E-05
    57 OT DIIS     0.80E-01    0.4     0.00001628      -837.5352342723 -1.45E-04
    58 OT DIIS     0.80E-01    0.4     0.00001608      -837.5353662608 -1.32E-04
    59 OT DIIS     0.80E-01    0.4     0.00001598      -837.5354455569 -7.93E-05
    60 OT DIIS     0.80E-01    0.4     0.00001584      -837.5355267053 -8.11E-05
    61 OT DIIS     0.80E-01    0.4     0.00001571      -837.5356247890 -9.81E-05
    62 OT DIIS     0.80E-01    0.4     0.00001559      -837.5357517688 -1.27E-04
    63 OT DIIS     0.80E-01    0.4     0.00001553      -837.5358230085 -7.12E-05
    64 OT DIIS     0.80E-01    0.4     0.00001547      -837.5359038159 -8.08E-05
    65 OT DIIS     0.80E-01    0.4     0.00001543      -837.5359708798 -6.71E-05
    66 OT DIIS     0.80E-01    0.4     0.00001540      -837.5360468188 -7.59E-05
    67 OT DIIS     0.80E-01    0.4     0.00001539      -837.5360671416 -2.03E-05
    68 OT DIIS     0.80E-01    0.4     0.00001536      -837.5361361835 -6.90E-05
    69 OT DIIS     0.80E-01    0.4     0.00001534      -837.5362231059 -8.69E-05
    70 OT DIIS     0.80E-01    0.4     0.00001533      -837.5362778947 -5.48E-05
    71 OT DIIS     0.80E-01    0.4     0.00001532      -837.5363118831 -3.40E-05
    72 OT DIIS     0.80E-01    0.4     0.00001532      -837.5363250251 -1.31E-05
    73 OT DIIS     0.80E-01    0.4     0.00001532      -837.5363922229 -6.72E-05
    74 OT SD       0.80E-01    0.4     0.00001534      -837.5364681675 -7.59E-05
    75 OT SD       0.80E-01    0.4     0.00001532      -837.5364785775 -1.04E-05
    76 OT SD       0.80E-01    0.4     0.00001532      -837.5364889684 -1.04E-05
    77 OT DIIS     0.80E-01    0.4     0.00001531      -837.5364993527 -1.04E-05
    78 OT DIIS     0.80E-01    0.4     0.00001530      -837.5365068562 -7.50E-06
    79 OT DIIS     0.80E-01    0.4     0.00001530      -837.5365650448 -5.82E-05
    80 OT DIIS     0.80E-01    0.4     0.00001528      -837.5366603488 -9.53E-05
    81 OT DIIS     0.80E-01    0.4     0.00001527      -837.5367180808 -5.77E-05
    82 OT SD       0.80E-01    0.4     0.00001527      -837.5367851145 -6.70E-05
    83 OT DIIS     0.80E-01    0.4     0.00001526      -837.5367954367 -1.03E-05
    84 OT DIIS     0.80E-01    0.4     0.00001532      -837.5368857186 -9.03E-05
    85 OT DIIS     0.80E-01    0.4     0.00001525      -837.5369051187 -1.94E-05
    86 OT DIIS     0.80E-01    0.4     0.00001526      -837.5369538600 -4.87E-05
    87 OT DIIS     0.80E-01    0.4     0.00001526      -837.5370164911 -6.26E-05
    88 OT DIIS     0.80E-01    0.4     0.00001520      -837.5371544027 -1.38E-04
    89 OT DIIS     0.80E-01    0.4     0.00001520      -837.5371845358 -3.01E-05
    90 OT SD       0.80E-01    0.4     0.00001540      -837.5373680556 -1.84E-04
    91 OT SD       0.80E-01    0.4     0.00001521      -837.5373784564 -1.04E-05
    92 OT DIIS     0.80E-01    0.4     0.00001516      -837.5373886732 -1.02E-05
    93 OT DIIS     0.80E-01    0.4     0.00001578      -837.5378089273 -4.20E-04
    94 OT DIIS     0.80E-01    0.4     0.00001526      -837.5381464355 -3.38E-04
    95 OT SD       0.80E-01    0.4     0.00001804      -837.5382747697 -1.28E-04
    96 OT SD       0.80E-01    0.4     0.00001589      -837.5382879864 -1.32E-05
    97 OT SD       0.80E-01    0.4     0.00001532      -837.5382989178 -1.09E-05
    98 OT DIIS     0.80E-01    0.4     0.00001506      -837.5383092041 -1.03E-05
    99 OT DIIS     0.80E-01    0.4     0.00001529      -837.5384635445 -1.54E-04
   100 OT DIIS     0.80E-01    0.4     0.00002360      -837.5390101856 -5.47E-04
   101 OT SD       0.80E-01    0.4     0.00001547      -837.5391253478 -1.15E-04
   102 OT SD       0.80E-01    0.4     0.00001468      -837.5391355572 -1.02E-05
   103 OT SD       0.80E-01    0.4     0.00001441      -837.5391449820 -9.42E-06
   104 OT DIIS     0.80E-01    0.4     0.00001428      -837.5391541252 -9.14E-06
   105 OT DIIS     0.80E-01    0.4     0.00001401      -837.5391806682 -2.65E-05
   106 OT DIIS     0.80E-01    0.4     0.00001399      -837.5393261413 -1.45E-04
   107 OT DIIS     0.80E-01    0.4     0.00001460      -837.5397043909 -3.78E-04
   108 OT DIIS     0.80E-01    0.4     0.00001406      -837.5397791238 -7.47E-05
   109 OT SD       0.80E-01    0.4     0.00001393      -837.5397856264 -6.50E-06
   110 OT DIIS     0.80E-01    0.4     0.00001350      -837.5397940172 -8.39E-06
   111 OT DIIS     0.80E-01    0.4     0.00001345      -837.5398867032 -9.27E-05
   112 OT DIIS     0.80E-01    0.4     0.00001309      -837.5402742613 -3.88E-04
   113 OT SD       0.80E-01    0.4     0.00001944      -837.5406332580 -3.59E-04
   114 OT SD       0.80E-01    0.4     0.00001487      -837.5406474255 -1.42E-05
   115 OT SD       0.80E-01    0.4     0.00001359      -837.5406567051 -9.28E-06
   116 OT DIIS     0.80E-01    0.4     0.00001302      -837.5406646847 -7.98E-06
   117 OT DIIS     0.80E-01    0.4     0.00001216      -837.5408042660 -1.40E-04
   118 OT SD       0.80E-01    0.4     0.00002602      -837.5412597011 -4.55E-04
   119 OT SD       0.80E-01    0.4     0.00001718      -837.5412833916 -2.37E-05
   120 OT DIIS     0.80E-01    0.4     0.00001451      -837.5412952663 -1.19E-05
   121 OT SD       0.80E-01    0.4     0.00001264      -837.5413146327 -1.94E-05
   122 OT DIIS     0.80E-01    0.4     0.00001179      -837.5413213717 -6.74E-06
   123 OT DIIS     0.80E-01    0.4     0.00001986      -837.5416638159 -3.42E-04
   124 OT DIIS     0.80E-01    0.4     0.00003624      -837.5416059332  5.79E-05
   125 OT SD       0.80E-01    0.4     0.00001716      -837.5419853272 -3.79E-04
   126 OT SD       0.80E-01    0.4     0.00001232      -837.5419960086 -1.07E-05
   127 OT DIIS     0.80E-01    0.4     0.00001096      -837.5420022804 -6.27E-06
   128 OT DIIS     0.80E-01    0.4     0.00001112      -837.5420213890 -1.91E-05
   129 OT DIIS     0.80E-01    0.4     0.00000948      -837.5420866526 -6.53E-05

  *** SCF run converged in   129 steps ***


  Electronic density on regular grids:       -583.9999743136        0.0000256864
  Core density on regular grids:              584.0000092197        0.0000092197
  Total charge density on r-space grids:        0.0000349061
  Total charge density g-space grids:           0.0000349061

  Overlap energy of the core charge distribution:               0.00002694280634
  Self energy of the core charge distribution:              -1964.58829645092828
  Core Hamiltonian energy:                                    617.47053750304281
  Hartree energy:                                             766.80674695573134
  Exchange-correlation energy:                               -256.75467822494278
  Dispersion energy:                                           -0.47642337832952

  Total energy:                                              -837.54208665262024

  outer SCF iter =    1 RMS gradient =   0.95E-05 energy =       -837.5420866526
  outer SCF loop converged in   1 iterations or  129 steps


   Calculate PDOS at iteration step                                  0
 OT| Eigensolver reached convergence in 191 iterations

   Compute           40    additional unoccupied KS orbitals

              ---- PDOS: start iteration on the KS states --- 

 !-----------------------------------------------------------------------------!
                     Mulliken Population Analysis

 #  Atom  Element  Kind  Atomic population                           Net charge
       1     C        1          4.001883                             -0.001883
       2     C        1          3.998188                              0.001812
       3     C        1          4.002088                             -0.002088
       4     C        1          4.000334                             -0.000334
       5     C        1          4.002330                             -0.002330
       6     C        1          3.998120                              0.001880
       7     C        1          4.002089                             -0.002089
       8     C        1          4.000102                             -0.000102
       9     C        1          4.003146                             -0.003146
      10     C        1          3.998505                              0.001495
      11     C        1          4.002137                             -0.002137
      12     C        1          3.999496                              0.000504
      13     C        1          4.002383                             -0.002383
      14     C        1          3.997978                              0.002022
      15     C        1          4.002772                             -0.002772
      16     C        1          3.999517                              0.000483
      17     C        1          4.003096                             -0.003096
      18     C        1          3.998053                              0.001947
      19     C        1          4.003550                             -0.003550
      20     C        1          3.999988                              0.000012
      21     C        1          4.002275                             -0.002275
      22     C        1          3.998243                              0.001757
      23     C        1          4.002421                             -0.002421
      24     C        1          4.000314                             -0.000314
      25     C        1          4.000352                             -0.000352
      26     C        1          4.000235                             -0.000235
      27     C        1          4.002120                             -0.002120
      28     C        1          3.997177                              0.002823
      29     C        1          4.000829                             -0.000829
      30     C        1          4.000067                             -0.000067
      31     C        1          4.002307                             -0.002307
      32     C        1          3.997087                              0.002913
      33     C        1          4.000678                             -0.000678
      34     C        1          3.999661                              0.000339
      35     C        1          4.002091                             -0.002091
      36     C        1          3.995814                              0.004186
      37     C        1          4.000708                             -0.000708
      38     C        1          3.996393                              0.003607
      39     C        1          4.004172                             -0.004172
      40     C        1          3.995869                              0.004131
      41     C        1          4.000222                             -0.000222
      42     C        1          3.999556                              0.000444
      43     C        1          4.002435                             -0.002435
      44     C        1          3.996888                              0.003112
      45     C        1          4.000680                             -0.000680
      46     C        1          4.000066                             -0.000066
      47     C        1          4.002321                             -0.002321
      48     C        1          3.996941                              0.003059
      49     C        1          4.002316                             -0.002316
      50     C        1          3.996707                              0.003293
      51     C        1          4.000759                             -0.000759
      52     C        1          3.998180                              0.001820
      53     C        1          4.001974                             -0.001974
      54     C        1          3.997182                              0.002818
      55     C        1          4.002162                             -0.002162
      56     C        1          3.997805                              0.002195
      57     C        1          4.002000                             -0.002000
      58     C        1          3.994609                              0.005391
      59     C        1          3.996831                              0.003169
      60     C        1          3.994961                              0.005039
      61     C        1          3.997078                              0.002922
      62     C        1          3.932311                              0.067689
      63     C        1          3.993887                              0.006113
      64     C        1          3.995464                              0.004536
      65     C        1          4.002627                             -0.002627
      66     C        1          3.995484                              0.004516
      67     C        1          4.000185                             -0.000185
      68     C        1          3.998217                              0.001783
      69     C        1          4.002630                             -0.002630
      70     C        1          3.996669                              0.003331
      71     C        1          4.000592                             -0.000592
      72     C        1          3.998349                              0.001651
      73     C        1          4.002232                             -0.002232
      74     C        1          3.998207                              0.001793
      75     C        1          4.002266                             -0.002266
      76     C        1          4.000093                             -0.000093
      77     C        1          4.003229                             -0.003229
      78     C        1          3.998342                              0.001658
      79     C        1          4.002406                             -0.002406
      80     C        1          3.999797                              0.000203
      81     C        1          4.006371                             -0.006371
      82     C        1          3.995048                              0.004952
      83     C        1          3.996338                              0.003662
      84     C        1          3.939663                              0.060337
      85     C        1          4.328124                             -0.328124
      86     C        1          3.935770                              0.064230
      87     C        1          3.997953                              0.002047
      88     C        1          3.995167                              0.004833
      89     C        1          4.001402                             -0.001402
      90     C        1          3.997544                              0.002456
      91     C        1          4.002641                             -0.002641
      92     C        1          3.998908                              0.001092
      93     C        1          4.001992                             -0.001992
      94     C        1          3.998369                              0.001631
      95     C        1          4.002335                             -0.002335
      96     C        1          3.999922                              0.000078
      97     C        1          4.000228                             -0.000228
      98     C        1          4.000329                             -0.000329
      99     C        1          4.002268                             -0.002268
     100     C        1          3.997060                              0.002940
     101     C        1          3.999896                              0.000104
     102     C        1          4.000396                             -0.000396
     103     C        1          4.002276                             -0.002276
     104     C        1          3.996832                              0.003168
     105     C        1          3.999647                              0.000353
     106     C        1          4.000158                             -0.000158
     107     C        1          4.002329                             -0.002329
     108     C        1          3.996102                              0.003898
     109     C        1          3.993836                              0.006164
     110     C        1          3.996519                              0.003481
     111     C        1          4.005330                             -0.005330
     112     C        1          3.994881                              0.005119
     113     C        1          4.000242                             -0.000242
     114     C        1          3.999724                              0.000276
     115     C        1          4.002103                             -0.002103
     116     C        1          3.996939                              0.003061
     117     C        1          4.000403                             -0.000403
     118     C        1          3.999970                              0.000030
     119     C        1          4.001642                             -0.001642
     120     C        1          3.996990                              0.003010
     121     C        1          4.002213                             -0.002213
     122     C        1          3.997130                              0.002870
     123     C        1          4.000325                             -0.000325
     124     C        1          3.998338                              0.001662
     125     C        1          4.001938                             -0.001938
     126     C        1          3.996924                              0.003076
     127     C        1          4.000112                             -0.000112
     128     C        1          3.997891                              0.002109
     129     C        1          4.002232                             -0.002232
     130     C        1          3.997781                              0.002219
     131     C        1          3.999973                              0.000027
     132     C        1          3.997956                              0.002044
     133     C        1          4.001736                             -0.001736
     134     C        1          3.996741                              0.003259
     135     C        1          4.000254                             -0.000254
     136     C        1          3.997796                              0.002204
     137     C        1          4.003485                             -0.003485
     138     C        1          3.997210                              0.002790
     139     C        1          4.000609                             -0.000609
     140     C        1          3.998171                              0.001829
     141     C        1          4.002482                             -0.002482
     142     C        1          3.997038                              0.002962
     143     C        1          4.000116                             -0.000116
     144     C        1          3.998352                              0.001648
     145     O        2          6.145051                             -0.145051
     146     H        3          0.870129                              0.129871
     147     H        3          0.895137                              0.104863
 # Total charge                            584.000000                  0.000000

 !-----------------------------------------------------------------------------!

 Hirshfeld charge iterations: Residuals ...
   0.096   0.016   0.004
 !-----------------------------------------------------------------------------!
                           Hirshfeld Charges

  #Atom  Element  Kind  Ref Charge     Population                    Net charge
      1       C      1       4.005          4.005                        -0.005
      2       C      1       3.994          3.994                         0.006
      3       C      1       4.006          4.006                        -0.006
      4       C      1       3.999          3.999                         0.001
      5       C      1       4.007          4.007                        -0.007
      6       C      1       3.993          3.993                         0.007
      7       C      1       4.006          4.006                        -0.006
      8       C      1       3.999          3.999                         0.001
      9       C      1       4.008          4.008                        -0.008
     10       C      1       3.994          3.994                         0.006
     11       C      1       4.007          4.007                        -0.007
     12       C      1       3.997          3.997                         0.003
     13       C      1       4.007          4.007                        -0.007
     14       C      1       3.993          3.993                         0.007
     15       C      1       4.008          4.008                        -0.008
     16       C      1       3.997          3.997                         0.003
     17       C      1       4.009          4.009                        -0.009
     18       C      1       3.993          3.993                         0.007
     19       C      1       4.009          4.009                        -0.009
     20       C      1       3.998          3.998                         0.002
     21       C      1       4.006          4.006                        -0.006
     22       C      1       3.994          3.994                         0.006
     23       C      1       4.007          4.007                        -0.007
     24       C      1       3.999          3.999                         0.001
     25       C      1       4.001          4.001                        -0.001
     26       C      1       3.999          3.999                         0.001
     27       C      1       4.006          4.006                        -0.006
     28       C      1       3.991          3.991                         0.009
     29       C      1       4.002          4.002                        -0.002
     30       C      1       3.998          3.998                         0.002
     31       C      1       4.007          4.007                        -0.007
     32       C      1       3.991          3.991                         0.009
     33       C      1       4.002          4.002                        -0.002
     34       C      1       3.998          3.998                         0.002
     35       C      1       4.009          4.009                        -0.009
     36       C      1       3.987          3.987                         0.013
     37       C      1       4.003          4.003                        -0.003
     38       C      1       3.992          3.992                         0.008
     39       C      1       4.014          4.014                        -0.014
     40       C      1       3.987          3.987                         0.013
     41       C      1       4.002          4.002                        -0.002
     42       C      1       3.997          3.997                         0.003
     43       C      1       4.007          4.007                        -0.007
     44       C      1       3.990          3.990                         0.010
     45       C      1       4.002          4.002                        -0.002
     46       C      1       3.998          3.998                         0.002
     47       C      1       4.006          4.006                        -0.006
     48       C      1       3.990          3.990                         0.010
     49       C      1       4.006          4.006                        -0.006
     50       C      1       3.990          3.990                         0.010
     51       C      1       4.002          4.002                        -0.002
     52       C      1       3.993          3.993                         0.007
     53       C      1       4.006          4.006                        -0.006
     54       C      1       3.990          3.990                         0.010
     55       C      1       4.005          4.005                        -0.005
     56       C      1       3.992          3.992                         0.008
     57       C      1       4.006          4.006                        -0.006
     58       C      1       3.985          3.985                         0.015
     59       C      1       4.028          4.028                        -0.028
     60       C      1       3.984          3.984                         0.016
     61       C      1       4.029          4.029                        -0.029
     62       C      1       3.955          3.955                         0.045
     63       C      1       4.021          4.021                        -0.021
     64       C      1       3.990          3.990                         0.010
     65       C      1       4.008          4.008                        -0.008
     66       C      1       3.987          3.987                         0.013
     67       C      1       4.002          4.002                        -0.002
     68       C      1       3.994          3.994                         0.006
     69       C      1       4.007          4.007                        -0.007
     70       C      1       3.989          3.989                         0.011
     71       C      1       4.002          4.002                        -0.002
     72       C      1       3.994          3.994                         0.006
     73       C      1       4.006          4.006                        -0.006
     74       C      1       3.994          3.994                         0.006
     75       C      1       4.006          4.006                        -0.006
     76       C      1       3.998          3.998                         0.002
     77       C      1       4.009          4.009                        -0.009
     78       C      1       3.993          3.993                         0.007
     79       C      1       4.007          4.007                        -0.007
     80       C      1       3.996          3.996                         0.004
     81       C      1       4.019          4.019                        -0.019
     82       C      1       3.987          3.987                         0.013
     83       C      1       4.025          4.025                        -0.025
     84       C      1       3.969          3.969                         0.031
     85       C      1       4.106          4.106                        -0.106
     86       C      1       3.962          3.962                         0.038
     87       C      1       4.032          4.032                        -0.032
     88       C      1       3.986          3.986                         0.014
     89       C      1       4.009          4.009                        -0.009
     90       C      1       3.992          3.992                         0.008
     91       C      1       4.008          4.008                        -0.008
     92       C      1       3.996          3.996                         0.004
     93       C      1       4.006          4.006                        -0.006
     94       C      1       3.994          3.994                         0.006
     95       C      1       4.007          4.007                        -0.007
     96       C      1       3.998          3.998                         0.002
     97       C      1       4.001          4.001                        -0.001
     98       C      1       3.999          3.999                         0.001
     99       C      1       4.006          4.006                        -0.006
    100       C      1       3.991          3.991                         0.009
    101       C      1       4.000          4.000                        -0.000
    102       C      1       3.999          3.999                         0.001
    103       C      1       4.007          4.007                        -0.007
    104       C      1       3.991          3.991                         0.009
    105       C      1       4.000          4.000                         0.000
    106       C      1       3.999          3.999                         0.001
    107       C      1       4.009          4.009                        -0.009
    108       C      1       3.988          3.988                         0.012
    109       C      1       4.019          4.019                        -0.019
    110       C      1       3.992          3.992                         0.008
    111       C      1       4.016          4.016                        -0.016
    112       C      1       3.986          3.986                         0.014
    113       C      1       4.001          4.001                        -0.001
    114       C      1       3.997          3.997                         0.003
    115       C      1       4.006          4.006                        -0.006
    116       C      1       3.990          3.990                         0.010
    117       C      1       4.001          4.001                        -0.001
    118       C      1       3.998          3.998                         0.002
    119       C      1       4.005          4.005                        -0.005
    120       C      1       3.991          3.991                         0.009
    121       C      1       4.006          4.006                        -0.006
    122       C      1       3.991          3.991                         0.009
    123       C      1       4.001          4.001                        -0.001
    124       C      1       3.994          3.994                         0.006
    125       C      1       4.006          4.006                        -0.006
    126       C      1       3.990          3.990                         0.010
    127       C      1       4.001          4.001                        -0.001
    128       C      1       3.993          3.993                         0.007
    129       C      1       4.006          4.006                        -0.006
    130       C      1       3.992          3.992                         0.008
    131       C      1       4.001          4.001                        -0.001
    132       C      1       3.993          3.993                         0.007
    133       C      1       4.006          4.006                        -0.006
    134       C      1       3.990          3.990                         0.010
    135       C      1       4.001          4.001                        -0.001
    136       C      1       3.991          3.991                         0.009
    137       C      1       4.010          4.010                        -0.010
    138       C      1       3.990          3.990                         0.010
    139       C      1       4.002          4.002                        -0.002
    140       C      1       3.994          3.994                         0.006
    141       C      1       4.007          4.007                        -0.007
    142       C      1       3.991          3.991                         0.009
    143       C      1       4.001          4.001                        -0.001
    144       C      1       3.994          3.994                         0.006
    145       O      2       7.100          7.100                        -1.100
    146       H      3       0.299          0.299                         0.701
    147       H      3       0.482          0.482                         0.518

  Total Charge                                                            0.094
 !-----------------------------------------------------------------------------!

 ENERGY| Total FORCE_EVAL ( QS ) energy [hartree]           -837.542086652620242

 -------------------------------------------------------------------------------
 -                                                                             -
 -                                DBCSR STATISTICS                             -
 -                                                                             -
 -------------------------------------------------------------------------------
 COUNTER                                    TOTAL       BLAS       SMM       ACC
 flops     5 x     4 x     4                  640     100.0%      0.0%      0.0%     
 flops     5 x     8 x     8                12800     100.0%      0.0%      0.0%     
 flops     4 x     4 x   468                14976     100.0%      0.0%      0.0%     
 flops     4 x     4 x   481                15392     100.0%      0.0%      0.0%     
 flops     5 x    32 x     4                23040     100.0%      0.0%      0.0%     
 flops     5 x     4 x    32                23040     100.0%      0.0%      0.0%     
 flops     4 x     4 x   473                30272     100.0%      0.0%      0.0%     
 flops    13 x     4 x     4               120640     100.0%      0.0%      0.0%     
 flops    36 x     8 x    68               195840     100.0%      0.0%      0.0%     
 flops     5 x     4 x     5               221600     100.0%      0.0%      0.0%     
 flops    36 x     8 x    96               276480     100.0%      0.0%      0.0%     
 flops    64 x     8 x    68               348160     100.0%      0.0%      0.0%     
 flops    36 x     8 x    64               368640     100.0%      0.0%      0.0%     
 flops    32 x     4 x   468               479232     100.0%      0.0%      0.0%     
 flops    32 x     4 x   481               492544     100.0%      0.0%      0.0%     
 flops     4 x    32 x   468               599040     100.0%      0.0%      0.0%     
 flops     4 x    32 x   481               615680     100.0%      0.0%      0.0%     
 flops     5 x     8 x     5               620800     100.0%      0.0%      0.0%     
 flops    36 x    32 x    68               783360     100.0%      0.0%      0.0%     
 flops     8 x     8 x     8               890880     100.0%      0.0%      0.0%     
 flops    32 x     4 x   473               968704     100.0%      0.0%      0.0%     
 flops    32 x     8 x    68              1044480     100.0%      0.0%      0.0%     
 flops    36 x    32 x    96              1105920     100.0%      0.0%      0.0%     
 flops   221 x     8 x    68              1202240     100.0%      0.0%      0.0%     
 flops     4 x    32 x   473              1210880     100.0%      0.0%      0.0%     
 flops     5 x     5 x    68              1336200     100.0%      0.0%      0.0%     
 flops   247 x     8 x    68              1343680     100.0%      0.0%      0.0%     
 flops    36 x     8 x   468              1347840     100.0%      0.0%      0.0%     
 flops    36 x     8 x   481              1385280     100.0%      0.0%      0.0%     
 flops    64 x    32 x    68              1392640     100.0%      0.0%      0.0%     
 flops    36 x    32 x    64              1474560     100.0%      0.0%      0.0%     
 flops   273 x     8 x    68              1485120     100.0%      0.0%      0.0%     
 flops     5 x     5 x    96              1886400     100.0%      0.0%      0.0%     
 flops     5 x    32 x    32              2048000     100.0%      0.0%      0.0%     
 flops    13 x     8 x     8              2412800     100.0%      0.0%      0.0%     
 flops     5 x     5 x    64              2515200     100.0%      0.0%      0.0%     
 flops    36 x     8 x   473              2724480     100.0%      0.0%      0.0%     
 flops   265 x     8 x    68              2883200     100.0%      0.0%      0.0%     
 flops   208 x     8 x    68              3394560     100.0%      0.0%      0.0%     
 flops     8 x     8 x    32              3563520     100.0%      0.0%      0.0%     
 flops     8 x    32 x     8              3563520     100.0%      0.0%      0.0%     
 flops    32 x     8 x     8              3563520     100.0%      0.0%      0.0%     
 flops    32 x    32 x    68              4177920     100.0%      0.0%      0.0%     
 flops    44 x     8 x    64              4325376     100.0%      0.0%      0.0%     
 flops    13 x    32 x     4              4343040     100.0%      0.0%      0.0%     
 flops    13 x     4 x    32              4343040     100.0%      0.0%      0.0%     
 flops   221 x    32 x    68              4808960     100.0%      0.0%      0.0%     
 flops    44 x     8 x    76              5136384     100.0%      0.0%      0.0%     
 flops   247 x    32 x    68              5374720     100.0%      0.0%      0.0%     
 flops    36 x    32 x   468              5391360     100.0%      0.0%      0.0%     
 flops    36 x    32 x   481              5541120     100.0%      0.0%      0.0%     
 flops   273 x    32 x    68              5940480     100.0%      0.0%      0.0%     
 flops    36 x    32 x   473             10897920     100.0%      0.0%      0.0%     
 flops   265 x    32 x    68             11532800     100.0%      0.0%      0.0%     
 flops    44 x     8 x    96             12976128     100.0%      0.0%      0.0%     
 flops    44 x    64 x   468             13178880     100.0%      0.0%      0.0%     
 flops    64 x     8 x    64             13238272     100.0%      0.0%      0.0%     
 flops    44 x    64 x   481             13544960     100.0%      0.0%      0.0%     
 flops   208 x    32 x    68             13578240     100.0%      0.0%      0.0%     
 flops    32 x    32 x     8             14254080     100.0%      0.0%      0.0%     
 flops     8 x    32 x    32             14254080     100.0%      0.0%      0.0%     
 flops    32 x     8 x    32             14254080     100.0%      0.0%      0.0%     
 flops    64 x     8 x    76             14942208     100.0%      0.0%      0.0%     
 flops    44 x    76 x   468             15649920     100.0%      0.0%      0.0%     
 flops   221 x     8 x     8             15954432     100.0%      0.0%      0.0%     
 flops    44 x    76 x   481             16084640     100.0%      0.0%      0.0%     
 flops    44 x    32 x    64             17301504     100.0%      0.0%      0.0%     
 flops    32 x     8 x    64             17694720     100.0%      0.0%      0.0%     
 flops   247 x     8 x     8             17831424     100.0%      0.0%      0.0%     
 flops     5 x    32 x     5             18438400     100.0%      0.0%      0.0%     
 flops    32 x     8 x    76             18677760     100.0%      0.0%      0.0%     
 flops   273 x     8 x     8             19708416     100.0%      0.0%      0.0%     
 flops    44 x    32 x    76             20545536     100.0%      0.0%      0.0%     
 flops     8 x     8 x   468             22344192     100.0%      0.0%      0.0%     
 flops     8 x     8 x   481             22964864     100.0%      0.0%      0.0%     
 flops   221 x     8 x    64             23988224     100.0%      0.0%      0.0%     
 flops   221 x     8 x    76             25798656     100.0%      0.0%      0.0%     
 flops    44 x    64 x   473             26639360     100.0%      0.0%      0.0%     
 flops   247 x     8 x    64             26810368     100.0%      0.0%      0.0%     
 flops   247 x     8 x    76             28833792     100.0%      0.0%      0.0%     
 flops   273 x     8 x    64             29632512     100.0%      0.0%      0.0%     
 flops    44 x     8 x   468             31629312     100.0%      0.0%      0.0%     
 flops    44 x    76 x   473             31634240     100.0%      0.0%      0.0%     
 flops   273 x     8 x    76             31868928     100.0%      0.0%      0.0%     
 flops    44 x     8 x   481             32507904     100.0%      0.0%      0.0%     
 flops    13 x     4 x     5             35289800     100.0%      0.0%      0.0%     
 flops     5 x     4 x    13             35289800     100.0%      0.0%      0.0%     
 flops    64 x     8 x    96             38240256     100.0%      0.0%      0.0%     
 flops   265 x     8 x     8             38261760     100.0%      0.0%      0.0%     
 flops    44 x    96 x   468             39536640     100.0%      0.0%      0.0%     
 flops    44 x    96 x   481             40634880     100.0%      0.0%      0.0%     
 flops   208 x     8 x     8             45047808     100.0%      0.0%      0.0%     
 flops     8 x     8 x   473             45165824     100.0%      0.0%      0.0%     
 flops    64 x    76 x   468             45527040     100.0%      0.0%      0.0%     
 flops    64 x    76 x   481             46791680     100.0%      0.0%      0.0%     
 flops    32 x     8 x    96             48660480     100.0%      0.0%      0.0%     
 flops    44 x    32 x    96             51904512     100.0%      0.0%      0.0%     
 flops    64 x    32 x    64             52953088     100.0%      0.0%      0.0%     
 flops    32 x    76 x   468             56908800     100.0%      0.0%      0.0%     
 flops    32 x    32 x    32             57016320     100.0%      0.0%      0.0%     
 flops   265 x     8 x    64             57528320     100.0%      0.0%      0.0%     
 flops    32 x    76 x   481             58489600     100.0%      0.0%      0.0%     
 flops    64 x    32 x    76             59768832     100.0%      0.0%      0.0%     
 flops   265 x     8 x    76             61870080     100.0%      0.0%      0.0%     
 flops   221 x     8 x    32             63817728     100.0%      0.0%      0.0%     
 flops   221 x    32 x     8             63817728     100.0%      0.0%      0.0%     
 flops    44 x     8 x   473             63934464     100.0%      0.0%      0.0%     
 flops   221 x     8 x    96             66872832     100.0%      0.0%      0.0%     
 flops   208 x     8 x    64             67731456     100.0%      0.0%      0.0%     
 flops    32 x    32 x    64             70778880     100.0%      0.0%      0.0%     
 flops   247 x     8 x    32             71325696     100.0%      0.0%      0.0%     
 flops   247 x    32 x     8             71325696     100.0%      0.0%      0.0%     
 flops   208 x     8 x    76             72843264     100.0%      0.0%      0.0%     
 flops    32 x    32 x    76             74711040     100.0%      0.0%      0.0%     
 flops   247 x     8 x    96             74740224     100.0%      0.0%      0.0%     
 flops   273 x    32 x     8             78833664     100.0%      0.0%      0.0%     
 flops   273 x     8 x    32             78833664     100.0%      0.0%      0.0%     
 flops    44 x    96 x   473             79918080     100.0%      0.0%      0.0%     
 flops   273 x     8 x    96             82607616     100.0%      0.0%      0.0%     
 flops     8 x    32 x   468             89376768     100.0%      0.0%      0.0%     
 flops     8 x    32 x   481             91859456     100.0%      0.0%      0.0%     
 flops    64 x    76 x   473             92026880     100.0%      0.0%      0.0%     
 flops    64 x     8 x   468             94408704     100.0%      0.0%      0.0%     
 flops   221 x    32 x    64             95952896     100.0%      0.0%      0.0%     
 flops    64 x     8 x   481             97031168     100.0%      0.0%      0.0%     
 flops    13 x     8 x     5             98862400     100.0%      0.0%      0.0%     
 flops     5 x     8 x    13             98862400     100.0%      0.0%      0.0%     
 flops   221 x    32 x    76            103194624     100.0%      0.0%      0.0%     
 flops   247 x    32 x    64            107241472     100.0%      0.0%      0.0%     
 flops    32 x    76 x   473            115033600     100.0%      0.0%      0.0%     
 flops   247 x    32 x    76            115335168     100.0%      0.0%      0.0%     
 flops   273 x    32 x    64            118530048     100.0%      0.0%      0.0%     
 flops    44 x    32 x   468            126517248     100.0%      0.0%      0.0%     
 flops   273 x    32 x    76            127475712     100.0%      0.0%      0.0%     
 flops    44 x    32 x   481            130031616     100.0%      0.0%      0.0%     
 flops    13 x     5 x    68            141484200     100.0%      0.0%      0.0%     
 flops     5 x    13 x    68            142633400     100.0%      0.0%      0.0%     
 flops    64 x    32 x    96            152961024     100.0%      0.0%      0.0%     
 flops   265 x     8 x    32            153047040     100.0%      0.0%      0.0%     
 flops   265 x    32 x     8            153047040     100.0%      0.0%      0.0%     
 flops   265 x     8 x    96            160373760     100.0%      0.0%      0.0%     
 flops   208 x    32 x     8            180191232     100.0%      0.0%      0.0%     
 flops   208 x     8 x    32            180191232     100.0%      0.0%      0.0%     
 flops     8 x    32 x   473            180663296     100.0%      0.0%      0.0%     
 flops   208 x     8 x    96            188817408     100.0%      0.0%      0.0%     
 flops    64 x     8 x   473            190834688     100.0%      0.0%      0.0%     
 flops    32 x    32 x    96            194641920     100.0%      0.0%      0.0%     
 flops    13 x     5 x    96            199742400     100.0%      0.0%      0.0%     
 flops     5 x    13 x    96            201364800     100.0%      0.0%      0.0%     
 flops    32 x     8 x   468            211580928     100.0%      0.0%      0.0%     
 flops    32 x     8 x   481            217458176     100.0%      0.0%      0.0%     
 flops   265 x    32 x    64            230113280     100.0%      0.0%      0.0%     
 flops   265 x    32 x    76            247480320     100.0%      0.0%      0.0%     
 flops   221 x    32 x    32            255270912     100.0%      0.0%      0.0%     
 flops    44 x    32 x   473            255737856     100.0%      0.0%      0.0%     
 flops    13 x     5 x    64            266323200     100.0%      0.0%      0.0%     
 flops   221 x    32 x    96            267491328     100.0%      0.0%      0.0%     
 flops     5 x    13 x    64            268486400     100.0%      0.0%      0.0%     
 flops   208 x    32 x    64            270925824     100.0%      0.0%      0.0%     
 flops   247 x    32 x    32            285302784     100.0%      0.0%      0.0%     
 flops   208 x    32 x    76            291373056     100.0%      0.0%      0.0%     
 flops   247 x    32 x    96            298960896     100.0%      0.0%      0.0%     
 flops   273 x    32 x    32            315334656     100.0%      0.0%      0.0%     
 flops   273 x    32 x    96            330430464     100.0%      0.0%      0.0%     
 flops    64 x    32 x   468            377634816     100.0%      0.0%      0.0%     
 flops    36 x    68 x    68            384531840     100.0%      0.0%      0.0%     
 flops    13 x    32 x    32            386048000     100.0%      0.0%      0.0%     
 flops    64 x    32 x   481            388124672     100.0%      0.0%      0.0%     
 flops    32 x     8 x   473            427682816     100.0%      0.0%      0.0%     
 flops    36 x    68 x    96            542868480     100.0%      0.0%      0.0%     
 flops    36 x    96 x    68            542868480     100.0%      0.0%      0.0%     
 flops   265 x    32 x    32            612188160     100.0%      0.0%      0.0%     
 flops   265 x    32 x    96            641495040     100.0%      0.0%      0.0%     
 flops    64 x    68 x    68            683612160     100.0%      0.0%      0.0%     
 flops   208 x    32 x    32            720764928     100.0%      0.0%      0.0%     
 flops    36 x    64 x    68            723824640     100.0%      0.0%      0.0%     
 flops    36 x    68 x    64            723824640     100.0%      0.0%      0.0%     
 flops   208 x    32 x    96            755269632     100.0%      0.0%      0.0%     
 flops    64 x    32 x   473            763338752     100.0%      0.0%      0.0%     
 flops    36 x    96 x    96            766402560     100.0%      0.0%      0.0%     
 flops    32 x    32 x   468            889454592     100.0%      0.0%      0.0%     
 flops    32 x    32 x   481            914161664     100.0%      0.0%      0.0%     
 flops    64 x    96 x    68            965099520     100.0%      0.0%      0.0%     
 flops    64 x    68 x    96            965099520     100.0%      0.0%      0.0%     
 flops    36 x    64 x    96           1021870080     100.0%      0.0%      0.0%     
 flops    36 x    96 x    64           1021870080     100.0%      0.0%      0.0%     
 flops    36 x    68 x   468           1191490560     100.0%      0.0%      0.0%     
 flops    36 x    68 x   481           1224587520     100.0%      0.0%      0.0%     
 flops    64 x    64 x    68           1286799360     100.0%      0.0%      0.0%     
 flops    64 x    68 x    64           1286799360     100.0%      0.0%      0.0%     
 flops   221 x    68 x    68           1314168544     100.0%      0.0%      0.0%     
 flops    64 x    96 x    96           1362493440     100.0%      0.0%      0.0%     
 flops    36 x    64 x    64           1362493440     100.0%      0.0%      0.0%     
 flops   247 x    68 x    68           1468776608     100.0%      0.0%      0.0%     
 flops   273 x    68 x    68           1623384672     100.0%      0.0%      0.0%     
 flops    36 x    96 x   468           1682104320     100.0%      0.0%      0.0%     
 flops    36 x    96 x   481           1728829440     100.0%      0.0%      0.0%     
 flops    32 x    32 x   473           1797914624     100.0%      0.0%      0.0%     
 flops    64 x    96 x    64           1816657920     100.0%      0.0%      0.0%     
 flops    64 x    64 x    96           1816657920     100.0%      0.0%      0.0%     
 flops   221 x    68 x   468           1828607040     100.0%      0.0%      0.0%     
 flops   221 x    68 x    96           1855296768     100.0%      0.0%      0.0%     
 flops   221 x    96 x    68           1855296768     100.0%      0.0%      0.0%     
 flops   221 x    68 x   481           1879401680     100.0%      0.0%      0.0%     
 flops   247 x    68 x   468           2043737280     100.0%      0.0%      0.0%     
 flops    32 x    68 x    68           2050836480     100.0%      0.0%      0.0%     
 flops   247 x    68 x    96           2073566976     100.0%      0.0%      0.0%     
 flops   247 x    96 x    68           2073566976     100.0%      0.0%      0.0%     
 flops   247 x    68 x   481           2100507760     100.0%      0.0%      0.0%     
 flops    64 x    68 x   468           2118205440     100.0%      0.0%      0.0%     
 flops    64 x    68 x   481           2177044480     100.0%      0.0%      0.0%     
 flops    36 x    64 x   468           2242805760     100.0%      0.0%      0.0%     
 flops   273 x    68 x   468           2258867520     100.0%      0.0%      0.0%     
 flops   273 x    96 x    68           2291837184     100.0%      0.0%      0.0%     
 flops   273 x    68 x    96           2291837184     100.0%      0.0%      0.0%     
 flops    36 x    64 x   481           2305105920     100.0%      0.0%      0.0%     
 flops   273 x    68 x   481           2321613840     100.0%      0.0%      0.0%     
 flops    36 x    68 x   473           2408440320     100.0%      0.0%      0.0%     
 flops    64 x    64 x    64           2422210560     100.0%      0.0%      0.0%     
 flops   221 x    64 x    68           2473729024     100.0%      0.0%      0.0%     
 flops   221 x    68 x    64           2473729024     100.0%      0.0%      0.0%     
 flops   221 x    96 x   468           2581562880     100.0%      0.0%      0.0%     
 flops   221 x    96 x    96           2619242496     100.0%      0.0%      0.0%     
 flops   221 x    96 x   481           2653272960     100.0%      0.0%      0.0%     
 flops   247 x    64 x    68           2764755968     100.0%      0.0%      0.0%     
 flops   247 x    68 x    64           2764755968     100.0%      0.0%      0.0%     
 flops   247 x    96 x   468           2885276160     100.0%      0.0%      0.0%     
 flops    32 x    96 x    68           2895298560     100.0%      0.0%      0.0%     
 flops    32 x    68 x    96           2895298560     100.0%      0.0%      0.0%     
 flops   247 x    96 x    96           2927388672     100.0%      0.0%      0.0%     
 flops    13 x    32 x     5           2936315200     100.0%      0.0%      0.0%     
 flops     5 x    32 x    13           2936315200     100.0%      0.0%      0.0%     
 flops   247 x    96 x   481           2965422720     100.0%      0.0%      0.0%     
 flops   273 x    64 x    68           3055782912     100.0%      0.0%      0.0%     
 flops   273 x    68 x    64           3055782912     100.0%      0.0%      0.0%     
 flops    64 x    96 x   468           3105423360     100.0%      0.0%      0.0%     
 flops   265 x    68 x    68           3151625920     100.0%      0.0%      0.0%     
 flops   273 x    96 x   468           3188989440     100.0%      0.0%      0.0%     
 flops    64 x    96 x   481           3191685120     100.0%      0.0%      0.0%     
 flops   273 x    96 x    96           3235534848     100.0%      0.0%      0.0%     
 flops   273 x    96 x   481           3277572480     100.0%      0.0%      0.0%     
 flops    36 x    96 x   473           3400151040     100.0%      0.0%      0.0%     
 flops   221 x    64 x   468           3442083840     100.0%      0.0%      0.0%     
 flops   221 x    64 x    96           3492323328     100.0%      0.0%      0.0%     
 flops   221 x    96 x    64           3492323328     100.0%      0.0%      0.0%     
 flops   221 x    64 x   481           3537697280     100.0%      0.0%      0.0%     
 flops   221 x    68 x   473           3696286880     100.0%      0.0%      0.0%     
 flops   208 x    68 x    68           3710593536     100.0%      0.0%      0.0%     
 flops   247 x    64 x   468           3847034880     100.0%      0.0%      0.0%     
 flops    32 x    64 x    68           3860398080     100.0%      0.0%      0.0%     
 flops    32 x    68 x    64           3860398080     100.0%      0.0%      0.0%     
 flops   247 x    64 x    96           3903184896     100.0%      0.0%      0.0%     
 flops   247 x    96 x    64           3903184896     100.0%      0.0%      0.0%     
 flops   247 x    64 x   481           3953896960     100.0%      0.0%      0.0%     
 flops    64 x    64 x   468           4025548800     100.0%      0.0%      0.0%     
 flops    32 x    96 x    96           4087480320     100.0%      0.0%      0.0%     
 flops   247 x    68 x   473           4131144160     100.0%      0.0%      0.0%     
 flops    64 x    64 x   481           4137369600     100.0%      0.0%      0.0%     
 flops   273 x    64 x   468           4251985920     100.0%      0.0%      0.0%     
 flops    64 x    68 x   473           4281671680     100.0%      0.0%      0.0%     
 flops   273 x    96 x    64           4314046464     100.0%      0.0%      0.0%     
 flops   273 x    64 x    96           4314046464     100.0%      0.0%      0.0%     
 flops   273 x    64 x   481           4370096640     100.0%      0.0%      0.0%     
 flops   265 x    68 x   468           4385347200     100.0%      0.0%      0.0%     
 flops   265 x    68 x    96           4449354240     100.0%      0.0%      0.0%     
 flops   265 x    96 x    68           4449354240     100.0%      0.0%      0.0%     
 flops   265 x    68 x   481           4507162400     100.0%      0.0%      0.0%     
 flops    36 x    64 x   473           4533534720     100.0%      0.0%      0.0%     
 flops   273 x    68 x   473           4566001440     100.0%      0.0%      0.0%     
 flops   221 x    64 x    64           4656431104     100.0%      0.0%      0.0%     
 flops   208 x    68 x   468           5163125760     100.0%      0.0%      0.0%     
 flops   247 x    64 x    64           5204246528     100.0%      0.0%      0.0%     
 flops   221 x    96 x   473           5218287360     100.0%      0.0%      0.0%     
 flops   208 x    96 x    68           5238484992     100.0%      0.0%      0.0%     
 flops   208 x    68 x    96           5238484992     100.0%      0.0%      0.0%     
 flops   208 x    68 x   481           5306545920     100.0%      0.0%      0.0%     
 flops    32 x    96 x    64           5449973760     100.0%      0.0%      0.0%     
 flops    32 x    64 x    96           5449973760     100.0%      0.0%      0.0%     
 flops   273 x    64 x    64           5752061952     100.0%      0.0%      0.0%     
 flops   247 x    96 x   473           5832203520     100.0%      0.0%      0.0%     
 flops   265 x    64 x    68           5932472320     100.0%      0.0%      0.0%     
 flops   265 x    68 x    64           5932472320     100.0%      0.0%      0.0%     
 flops    13 x     4 x    13           6060598232     100.0%      0.0%      0.0%     
 flops   265 x    96 x   468           6191078400     100.0%      0.0%      0.0%     
 flops    64 x    96 x   473           6277201920     100.0%      0.0%      0.0%     
 flops   265 x    96 x    96           6281441280     100.0%      0.0%      0.0%     
 flops    32 x    68 x   468           6354616320     100.0%      0.0%      0.0%     
 flops   265 x    96 x   481           6363052800     100.0%      0.0%      0.0%     
 flops   273 x    96 x   473           6446119680     100.0%      0.0%      0.0%     
 flops    32 x    68 x   481           6531133440     100.0%      0.0%      0.0%     
 flops   221 x    64 x   473           6957716480     100.0%      0.0%      0.0%     
 flops   208 x    64 x    68           6984646656     100.0%      0.0%      0.0%     
 flops   208 x    68 x    64           6984646656     100.0%      0.0%      0.0%     
 flops    32 x    64 x    64           7266631680     100.0%      0.0%      0.0%     
 flops   208 x    96 x   468           7289118720     100.0%      0.0%      0.0%     
 flops   208 x    96 x    96           7395508224     100.0%      0.0%      0.0%     
 flops   208 x    96 x   481           7491594240     100.0%      0.0%      0.0%     
 flops   247 x    64 x   473           7776271360     100.0%      0.0%      0.0%     
 flops    64 x    64 x   473           8137113600     100.0%      0.0%      0.0%     
 flops   265 x    64 x   468           8254771200     100.0%      0.0%      0.0%     
 flops   265 x    64 x    96           8375255040     100.0%      0.0%      0.0%     
 flops   265 x    96 x    64           8375255040     100.0%      0.0%      0.0%     
 flops   265 x    64 x   481           8484070400     100.0%      0.0%      0.0%     
 flops   273 x    64 x   473           8594826240     100.0%      0.0%      0.0%     
 flops   265 x    68 x   473           8864398400     100.0%      0.0%      0.0%     
 flops    32 x    96 x   468           9114992640     100.0%      0.0%      0.0%     
 flops    32 x    96 x   481           9368186880     100.0%      0.0%      0.0%     
 flops   208 x    64 x   468           9718824960     100.0%      0.0%      0.0%     
 flops   208 x    96 x    64           9860677632     100.0%      0.0%      0.0%     
 flops   208 x    64 x    96           9860677632     100.0%      0.0%      0.0%     
 flops   208 x    64 x   481           9988792320     100.0%      0.0%      0.0%     
 flops   208 x    68 x   473          10436574720     100.0%      0.0%      0.0%     
 flops   265 x    64 x    64          11167006720     100.0%      0.0%      0.0%     
 flops    32 x    64 x   468          12009553920     100.0%      0.0%      0.0%     
 flops    32 x    64 x   481          12343152640     100.0%      0.0%      0.0%     
 flops   265 x    96 x   473          12514444800     100.0%      0.0%      0.0%     
 flops    32 x    68 x   473          12845015040     100.0%      0.0%      0.0%     
 flops   208 x    64 x    64          13147570176     100.0%      0.0%      0.0%     
 flops   208 x    96 x   473          14733987840     100.0%      0.0%      0.0%     
 flops   265 x    64 x   473          16685926400     100.0%      0.0%      0.0%     
 flops    13 x     8 x    13          16978426816     100.0%      0.0%      0.0%     
 flops    32 x    96 x   473          18424750080     100.0%      0.0%      0.0%     
 flops   208 x    64 x   473          19645317120     100.0%      0.0%      0.0%     
 flops    32 x    64 x   473          24275722240     100.0%      0.0%      0.0%     
 flops    13 x    13 x    68          24636664520     100.0%      0.0%      0.0%     
 flops    13 x    13 x    96          34781173440     100.0%      0.0%      0.0%     
 flops    13 x    13 x    64          46374897920     100.0%      0.0%      0.0%     
 flops    13 x    32 x    13         504276779968     100.0%      0.0%      0.0%     
 flops inhomo. stacks                           0       0.0%      0.0%      0.0%
 flops total                         1.365909E+12     100.0%      0.0%      0.0%
 flops max/rank                    130.527990E+09     100.0%      0.0%      0.0%
 matmuls inhomo. stacks                         0       0.0%      0.0%      0.0%
 matmuls total                           63938076     100.0%      0.0%      0.0%
 number of processed stacks                546156     100.0%      0.0%      0.0%
 average stack size                                   117.1       0.0       0.0
 marketing flops                   695.057897E-24
 -------------------------------------------------------------------------------
 # multiplications                           5383
 max memory usage/rank               2.236137E+09
 # max total images/rank                        1
 # max 3D layers                                1
 # MPI messages exchanged                  516768
 MPI messages size (bytes):
  total size                       -68.308571E+33
  min size                           0.000000E+00
  max size                           1.850888E+06
  average size                    -132.184214E+27
 MPI breakdown and total messages size (bytes):
             size <=      128              132690                        0
       128 < size <=     8192               30162                101664768
      8192 < size <=    32768               59940               1882569408
     32768 < size <=   131072              132552               7768847232
    131072 < size <=  4194304              161424              89834284200
   4194304 < size <= 16777216                   0                        0
  16777216 < size                               0                        0
 -------------------------------------------------------------------------------
 -                                                                             -
 -                      DBCSR MESSAGE PASSING PERFORMANCE                      -
 -                                                                             -
 -------------------------------------------------------------------------------
 ROUTINE             CALLS      AVE VOLUME [Bytes]
 MP_Bcast              329                     12.
 MP_Allreduce        26247                      9.
 MP_Alltoall         18749                  16727.
 MP_ISend            86094                  84418.
 MP_IRecv            86094                  81738.
 -------------------------------------------------------------------------------

 -------------------------------------------------------------------------------
 -                                                                             -
 -                                GRID STATISTICS                              -
 -                                                                             -
 -------------------------------------------------------------------------------
 LP    KERNEL             BACKEND                              COUNT     PERCENT
 4     collocate ortho    CPU                                9554740      48.81%
 4     integrate ortho    CPU                                9481242      48.43%
 3     collocate ortho    CPU                                 253760       1.30%
 3     integrate ortho    CPU                                 251808       1.29%
 0     collocate general  CPU                                   9408       0.05%
 2     collocate ortho    CPU                                   8710       0.04%
 2     integrate ortho    CPU                                   8643       0.04%
 0     integrate general  CPU                                   7056       0.04%
 -------------------------------------------------------------------------------

 -------------------------------------------------------------------------------
 -                                                                             -
 -                          OFFLOAD MEMPOOL STATISTICS                         -
 -                                                                             -
 -------------------------------------------------------------------------------
 Memory consumption                Number of allocations  Used [MiB]  Size [MiB]
 Device                                                6          16          16
 Host                                                  6          16          16
 -------------------------------------------------------------------------------

 MEMORY| Estimated peak process memory [MiB]                                 506

 -------------------------------------------------------------------------------
 -                                                                             -
 -                         MESSAGE PASSING PERFORMANCE                         -
 -                                                                             -
 -------------------------------------------------------------------------------

 ROUTINE             CALLS      AVE VOLUME [Bytes]
 MP_Group                4
 MP_Bcast            14051                   2407.
 MP_Allreduce        38654                    469.
 MP_Sync               268
 MP_Alltoall          2472               10757836.
 MP_SendRecv          3900                  57600.
 MP_ISendRecv         3870                  57600.
 MP_Wait             15945
 MP_comm_split         264
 MP_ISend            10500                 242883.
 MP_IRecv            10500                 242909.
 -------------------------------------------------------------------------------


 -------------------------------------------------------------------------------
 -                                                                             -
 -                           R E F E R E N C E S                               -
 -                                                                             -
 -------------------------------------------------------------------------------
 
 CP2K version 2026.1, the CP2K developers group (2026).
 CP2K is freely available from https://www.cp2k.org/ .
 
 T. D. Kuehne, M. Iannuzzi, M. Del Ben, V. V. Rybkin, P. Seewald, F. Stein, T. 
 Laino, R. Z. Khaliullin, O. Schuett, F. Schiffmann, D. Golze, J. Wilhelm, S. 
 Chulkov, M. H. Bani-Hashemian, V. Weber, U. Borstnik, M. Taillefumier, A. S. 
 Jakobovits, A. Lazzaro, H. Pabst, T. Mueller, R. Schade, M. Guidon, S. 
 Andermatt, N. Holmberg, G. K. Schenter, A. Hehn, A. Bussy, F. Belleflamme, G. 
 Tabacchi, A. Gloess, M. Lass, I. Bethune, C. J. Mundy, C. Plessl, M. Watkins, 
 J. VandeVondele, M. Krack, J. Hutter.
 J. Chem. Phys. 152, 194103 (2020).
 CP2K: An electronic structure and molecular dynamics software package - 
 Quickstep: Efficient and accurate electronic structure calculations.
 https://doi.org/10.1063/5.0007045

 L. Goerigk, A. Hansen, C. Bauer, S. Ehrlich, A. Najibi, S. Grimme.
 Phys. Chem. Chem. Phys. 19, 32184-32215 (2017).
 A look at the density functional theory zoo with the advanced GMTKN55 database 
 for general main group thermochemistry, kinetics and noncovalent interactions.
 https://doi.org/10.1039/C7CP04913G

 O. Schuett, P. Messmer, J. Hutter, J. VandeVondele.
 Electronic Structure Calculations on Graphics Processing Units, 173-190 (2016).
 GPU-Accelerated Sparse Matrix-Matrix Multiplication for Linear Scaling Density 
 Functional Theory.
 https://doi.org/10.1002/9781118670712.ch8

 A. Heinecke, G. Henry, M. Hutchinson, H. Pabst.
 Proceedings of Intl. Supercomputing Conference, 981-991 (2016).
 LIBXSMM: Accelerating Small Matrix Multiplications by Runtime Code Generation.
 https://doi.org/10.1109/SC.2016.83

 J. Hutter, M. Iannuzzi, F. Schiffmann, J. VandeVondele.
 WIREs Comput Mol Sci. 4, 15-25 (2014).
 CP2K: atomistic simulations of condensed matter systems.
 https://doi.org/10.1002/wcms.1159

 U. Borstnik, J. VandeVondele, V. Weber, J. Hutter.
 Parallel Comput. 40, 47-58 (2014).
 Sparse matrix multiplication: The distributed block-compressed sparse row 
 library.
 https://doi.org/10.1016/j.parco.2014.03.012

 S. Grimme, S. Ehrlich, L. Goerigk.
 J. Comput. Chem. 32, 1456 (2011).
 Effect of the damping function in dispersion corrected density functional 
 theory.
 https://doi.org/10.1002/jcc.21759

 S. Grimme, J. Antony, S. Ehrlich, H. Krieg.
 J. Chem. Phys. 132, 154104 (2010).
 A consistent and accurate ab initio parametrization of density functional 
 dispersion correction (DFT-D) for the 94 elements H-Pu.
 https://doi.org/10.1063/1.3382344

 J. VandeVondele, J. Hutter.
 J. Chem. Phys. 127, 114105 (2007).
 Gaussian basis sets for accurate calculations on molecular systems in gas and 
 condensed phases.
 https://doi.org/10.1063/1.2770708

 J. VandeVondele, M. Krack, F. Mohamed, M. Parrinello, T. Chassaing, J. Hutter.
 Comput. Phys. Commun. 167, 103-128 (2005).
 QUICKSTEP: Fast and accurate density functional calculations using a mixed 
 Gaussian and plane waves approach.
 https://doi.org/10.1016/j.cpc.2004.12.014

 M. Krack.
 Theor. Chem. Acc. 114, 145-152 (2005).
 Pseudopotentials for H to Kr optimized for gradient-corrected 
 exchange-correlation functionals.
 https://doi.org/10.1007/s00214-005-0655-y

 M. Frigo, S. G. Johnson.
 Proc. IEEE 93, 216-231 (2005).
 The design and implementation of FFTW3.
 https://doi.org/10.1109/JPROC.2004.840301

 J. VandeVondele, J. Hutter.
 J. Chem. Phys. 118, 4365-4369 (2003).
 An efficient orbital transformation method for electronic structure 
 calculations.
 https://doi.org/10.1063/1.1543154

 C. Hartwigsen, S. Goedecker, J. Hutter.
 Phys. Rev. B 58, 3641-3662 (1998).
 Relativistic separable dual-space Gaussian pseudopotentials from H to Rn.
 https://doi.org/10.1103/PhysRevB.58.3641

 G. Lippert, J. Hutter, M. Parrinello.
 Mol. Phys. 92, 477-487 (1997).
 A hybrid Gaussian and plane wave density functional scheme.
 https://doi.org/10.1080/002689797170220

 S. Goedecker, M. Teter, J. Hutter.
 Phys. Rev. B 54, 1703-1710 (1996).
 Separable dual-space Gaussian pseudopotentials.
 https://doi.org/10.1103/PhysRevB.54.1703

 J. P. Perdew, K. Burke, M. Ernzerhof.
 Phys. Rev. Lett. 77, 3865-3868 (1996).
 Generalized gradient approximation made simple.
 https://doi.org/10.1103/PhysRevLett.77.3865


 -------------------------------------------------------------------------------
 -                                                                             -
 -                                T I M I N G                                  -
 -                                                                             -
 -------------------------------------------------------------------------------
 SUBROUTINE                       CALLS  ASD         SELF TIME        TOTAL TIME
                                MAXIMUM       AVERAGE  MAXIMUM  AVERAGE  MAXIMUM
 CP2K                                 1  1.0    0.017    0.022   54.138   54.138
 qs_energies                          1  2.0    0.000    0.000   53.919   53.919
 scf_env_do_scf                       1  3.0    0.000    0.000   48.052   48.052
 scf_env_do_scf_inner_loop          129  4.0    0.003    0.009   47.610   47.612
 qs_ks_update_qs_env                130  5.0    0.001    0.001   27.423   27.486
 rebuild_ks_matrix                  129  6.0    0.000    0.000   27.368   27.431
 qs_ks_build_kohn_sham_matrix       129  7.0    0.015    0.016   27.368   27.431
 fft_wrap_pw1pw2                   2199 10.3    0.035    0.043   18.514   18.929
 fft_wrap_pw1pw2_80                1422 11.7    0.722    0.953   17.581   18.109
 fft3d_ps                          2199 12.3    7.931    9.995   14.317   16.678
 qs_vxc_create                      129  8.0    0.002    0.004   14.984   15.375
 xc_vxc_pw_create                   129  9.0    0.162    0.183   14.982   15.373
 dbcsr_multiply_generic            5383 10.0    0.123    0.129   11.787   11.958
 xc_pw_derive                       774 11.0    0.007    0.010   10.439   10.988
 qs_rho_update_rho_low              130  5.0    0.000    0.001   10.195   10.212
 calculate_rho_elec                 130  6.0    0.112    0.120   10.194   10.212
 qs_scf_new_mos                     129  5.0    0.001    0.001   10.031   10.079
 qs_scf_loop_do_ot                  129  6.0    0.001    0.001   10.030   10.078
 ot_scf_mini                        129  7.0    0.002    0.002    9.543    9.587
 sum_up_and_integrate               129  8.0    0.002    0.002    8.250    8.279
 integrate_v_rspace                 129  9.0    0.004    0.005    8.200    8.226
 xc_rho_set_and_dset_create         129 10.0    0.123    0.158    7.567    7.860
 density_rs2pw                      130  7.0    0.004    0.005    5.918    7.623
 mp_alltoall_z22v                  2199 14.3    4.536    7.449    4.536    7.449
 xc_pw_divergence                   129 10.0    0.003    0.006    6.899    7.177
 multiply_cannon                   5383 11.0    0.229    0.236    6.450    6.976
 ot_mini                            320  8.0    0.001    0.001    5.686    5.729
 scf_post_calculation_gpw             1  3.0    0.000    0.000    5.643    5.643
 write_available_results              1  4.0    0.000    0.000    5.643    5.643
 multiply_cannon_loop              5383 12.0    0.086    0.092    5.044    5.606
 write_mo_dependent_results           1  5.0    0.000    0.000    5.584    5.588
 calculate_projected_dos              1  6.0    0.009    0.013    5.542    5.546
 ot_eigensolver                       1  7.0    0.002    0.002    4.992    4.992
 grid_collocate_task_list           130  7.0    3.654    4.890    3.654    4.890
 qs_ot_get_p                        326  8.0    0.002    0.002    4.709    4.828
 grid_integrate_task_list           129 10.0    3.183    4.649    3.183    4.649
 yz_to_x                           1037 12.9    0.703    0.837    2.911    4.553
 x_to_yz                           1162 13.7    1.110    1.392    3.439    4.423
 mp_waitall_1                    263829 14.2    3.038    4.372    3.038    4.372
 qs_ot_get_derivative               225  9.0    0.002    0.002    4.200    4.235
 transfer_rs2pw                     524  8.0    0.004    0.005    2.224    4.184
 multiply_cannon_multrec          21532 13.0    2.588    4.097    2.602    4.111
 mp_waitany                       10500 11.5    2.011    3.983    2.011    3.983
 make_m2s                         10766 11.0    0.066    0.073    3.699    3.892
 transfer_rs2pw_80                  134  9.0    0.224    0.244    1.693    3.693
 mp_alltoall_d11v                  3964 12.6    1.707    3.685    1.707    3.685
 cp_fm_syevd                        264 10.9    0.001    0.001    3.598    3.604
 qs_ot_p2m_diag                     254  9.0    0.029    0.052    3.549    3.580
 rs_gather_matrices                 129 10.0    0.056    0.067    1.552    3.565
 cp_fm_redistribute_end             264 11.9    1.772    3.480    1.784    3.495
 potential_pw2rs                    129 10.0    0.020    0.021    3.460    3.468
 cp_fm_syevd_base                   264 11.9    1.707    3.416    1.707    3.416
 make_images                      10766 12.0    0.606    0.953    2.994    3.253
 cp_dbcsr_syevd                     254 10.0    0.011    0.011    3.145    3.151
 qs_ot_get_derivative_diag          186 10.0    0.004    0.005    2.642    2.680
 multiply_cannon_metrocomm3       21532 13.0    0.025    0.026    1.231    2.513
 xc_functional_eval                 129 11.0    0.001    0.002    2.077    2.272
 pbe_lda_eval                       129 12.0    2.076    2.271    2.076    2.271
 pw_gather_p                       1037 11.9    1.798    2.245    1.798    2.245
 mp_sum_d                         10655 11.1    1.025    1.891    1.025    1.891
 make_images_data                 10766 13.0    0.052    0.060    1.267    1.577
 transfer_pw2rs                     519 11.0    0.004    0.005    1.488    1.498
 hybrid_alltoall_any              11097 13.9    0.151    0.727    1.054    1.435
 ot_diis_step                       129  9.0    0.004    0.004    1.423    1.423
 pw_poisson_solve                   129  8.0    0.002    0.003    1.367    1.379
 pw_scatter_p                      1162 12.7    1.096    1.339    1.096    1.339
 multiply_cannon_metrocomm1       21532 13.0    0.027    0.028    0.571    1.268
 fft_wrap_pw1pw2_30                 259 10.5    0.019    0.029    0.690    1.191
 apply_preconditioner_dbcsr         130 10.0    0.000    0.000    1.115    1.167
 apply_single                       130 11.0    0.000    0.001    1.114    1.167
 mp_sum_l                         25601 11.1    0.752    1.140    0.752    1.140
 -------------------------------------------------------------------------------

 The number of warnings for this run is : 0
 
 -------------------------------------------------------------------------------
  **** **** ******  **  PROGRAM ENDED AT                 2026-06-19 15:30:45.774
 ***** ** ***  *** **   PROGRAM RAN ON             ip-172-31-14-159.ec2.internal
 **    ****   ******    PROGRAM RAN BY                                 <unknown>
 ***** **    ** ** **   PROGRAM PROCESS ID                                  5521
  **** **  *******  **  PROGRAM STOPPED IN /opt/cp2k_i2/cp2k_adsorption_heteroge
                                           neity
