 DBCSR| CPU Multiplication driver                                           BLAS (U)
 DBCSR| Multrec recursion limit                                              512 (U)
 DBCSR| Multiplication stack size                                           1000 (D)
 DBCSR| Maximum elements for images                                    UNLIMITED (U)
 DBCSR| Multiplicative factor virtual images                                   1 (U)
 DBCSR| Use multiplication densification                                       T (D)
 DBCSR| Multiplication size stacks                                             3 (U)
 DBCSR| Use memory pool for CPU allocation                                     F (U)
 DBCSR| Number of 3D layers                                               SINGLE (U)
 DBCSR| Use MPI memory allocation                                              F (U)
 DBCSR| Use RMA algorithm                                                      F (U)
 DBCSR| Use Communication thread                                               T (U)
 DBCSR| Communication thread load                                             83 (D)
 DBCSR| MPI: My process id                                                     0
 DBCSR| MPI: Number of processes                                              16
 DBCSR| OMP: Current number of threads                                         2
 DBCSR| OMP: Max number of threads                                             2
 DBCSR| Split modifier for TAS multiplication algorithm                  1.0E+00 (U)


  **** **** ******  **  PROGRAM STARTED AT               2026-06-19 15:58:46.599
 ***** ** ***  *** **   PROGRAM STARTED ON          ip-172-31-81-15.ec2.internal
 **    ****   ******    PROGRAM STARTED BY                             <unknown>
 ***** **    ** ** **   PROGRAM PROCESS ID                                  5748
  **** **  *******  **  PROGRAM STARTED IN /opt/cp2k_i2/cp2k_adsorption_heteroge
                                           neity

 CP2K| version string:                                       CP2K version 2026.1
 CP2K| source code revision number:                                      aceff1c
 CP2K| cp2kflags: omp libint fftw3 libxc parallel scalapack mpi_f08 cosma xsmm p
 CP2K|            lumed2 spglib sirius libtorch hdf5 trexio
 CP2K| is freely available from                            https://www.cp2k.org/
 CP2K| Program compiled at                                   2026-06-16 16:35:48
 CP2K| Program compiled on                                                      
 CP2K| Program compiled for                                               x86_64
 CP2K| Data directory path                      /opt/cp2k_i2/env/share/cp2k/data
 CP2K| Input file name        cp2k_inputs/sp/OH_functionalized_basal_periodic_sl

 GLOBAL| Force Environment number                                              1
 GLOBAL| Basis set file name            /opt/cp2k_i2/env/share/cp2k/data/BASIS_M
 GLOBAL| Potential file name            /opt/cp2k_i2/env/share/cp2k/data/GTH_POT
 GLOBAL| MM Potential file name                                     MM_POTENTIAL
 GLOBAL| Coordinate file name                                      __STD_INPUT__
 GLOBAL| Method name                                                        CP2K
 GLOBAL| Project name                   OH_functionalized_basal_periodic_slab_co
 GLOBAL| Run type                                                         ENERGY
 GLOBAL| FFT library                                                       FFTW3
 GLOBAL| Diagonalization library                                       ScaLAPACK
 GLOBAL| Cholesky decomposition library                                ScaLAPACK
 GLOBAL| DGEMM library                                                      BLAS
 GLOBAL| Orthonormality check for eigenvectors                          DISABLED
 GLOBAL| Matrix multiplication library                                     COSMA
 GLOBAL| All-to-all communication in single precision                          F
 GLOBAL| FFTs using library dependent lengths                                  F
 GLOBAL| Grid backend                                                       AUTO
 GLOBAL| Global print level                                                  LOW
 GLOBAL| MPI I/O enabled                                                       T
 GLOBAL| Total number of message passing processes                            16
 GLOBAL| Number of distributed systems (nodes)                                 1
 GLOBAL| Number of threads for this process                                    2
 GLOBAL| This output is from process                                           0
 GLOBAL| OpenMP stack size per thread (OMP_STACKSIZE)                    default
 GLOBAL| CPU model name                                            AMD EPYC 9R14
 GLOBAL| CPUID                                                              1003
 GLOBAL| Compiled for CPUID                                                 1002

 *** HINT in environment.F:960 :: The compiler target flags (x86_avx2)     ***
 *** used to build this binary cannot exploit all extensions of this CPU   ***
 *** model (x86_avx512). Consider compiler target flags as part of FCFLAGS ***
 *** and CFLAGS (ARCH file).                                               ***


 MEMORY| system memory details [Kb]
 MEMORY|                        rank 0           min           max       average
 MEMORY| MemTotal             64430560      64430560      64430560      64430560
 MEMORY| MemFree              56692696      56692696      56692696      56692696
 MEMORY| Buffers                  3172          3172          3172          3172
 MEMORY| Cached                4274068       4274068       4274068       4274068
 MEMORY| Slab                   298272        298272        298272        298272
 MEMORY| SReclaimable           114820        114820        114820        114820
 MEMORY| MemLikelyFree        61084756      61084756      61084756      61084756


 GENERATE|  Preliminary Number of Bonds generated:                             0
 GENERATE|  Achieved consistency in connectivity generation.

 *******************************************************************************
 *******************************************************************************
 **                                                                           **
 **     #####                         ##              ##                      **
 **    ##   ##            ##          ##              ##                      **
 **   ##     ##                       ##            ######                    **
 **   ##     ##  ##   ##  ##   #####  ##  ##   ####   ##    #####    #####    **
 **   ##     ##  ##   ##  ##  ##      ## ##   ##      ##   ##   ##  ##   ##   **
 **   ##  ## ##  ##   ##  ##  ##      ####     ###    ##   ######   ######    **
 **    ##  ###   ##   ##  ##  ##      ## ##      ##   ##   ##       ##        **
 **     #######   #####   ##   #####  ##  ##  ####    ##    #####   ##        **
 **           ##                                                    ##        **
 **                                                                           **
 **                                                ... make the atoms dance   **
 **                                                                           **
 **            Copyright (C) by CP2K developers group (2000-2026)             **
 **                      J. Chem. Phys. 152, 194103 (2020)                    **
 **                                                                           **
 *******************************************************************************


 TOTAL NUMBERS AND MAXIMUM NUMBERS

  Total number of            - Atomic kinds:                                   4
                             - Atoms:                                        149
                             - Shell sets:                                   149
                             - Shells:                                       741
                             - Primitive Cartesian functions:                745
                             - Cartesian basis functions:                   2068
                             - Spherical basis functions:                   1921

  Maximum angular momentum of- Orbital basis functions:                        2
                             - Local part of the GTH pseudopotential:          2
                             - Non-local part of the GTH pseudopotential:      4


 SCF PARAMETERS         Density guess:                                    ATOMIC
                        --------------------------------------------------------
                        max_scf:                                             260
                        max_scf_history:                                       0
                        max_diis:                                              4
                        --------------------------------------------------------
                        eps_scf:                                        1.00E-05
                        eps_scf_history:                                0.00E+00
                        eps_diis:                                       0.00E+00
                        eps_eigval:                                     1.00E-05
                        --------------------------------------------------------
                        level_shift [a.u.]:                             0.000000
                        --------------------------------------------------------
                        Outer loop SCF in use 
                        No variables optimised in outer loop
                        eps_scf                                         1.00E-05
                        max_scf                                               10
                        No outer loop optimization
                        step_size                                       5.00E-01

 Extrapolation method: initial_guess

 Number of electrons:                                                        598
 Number of occupied orbitals:                                                299
 Number of molecular orbitals:                                               299

 Number of orbital functions:                                               1921
 Number of independent orbital functions:                                   1921


 SCF WAVEFUNCTION OPTIMIZATION

  ----------------------------------- OT ---------------------------------------
  Minimizer      : DIIS                : direct inversion
                                         in the iterative subspace
                                         using   7 DIIS vectors
                                         safer DIIS on
  Preconditioner : FULL_SINGLE_INVERSE : inversion of 
                                         H + eS - 2*(Sc)(c^T*H*c+const)(Sc)^T
  Precond_solver : DEFAULT
  stepsize       :    0.08000000                  energy_gap     :    0.08000000
  eps_taylor     :   0.10000E-15                  max_taylor     :             4
  ----------------------------------- OT ---------------------------------------

  Step     Update method      Time    Convergence         Total energy    Change
  ------------------------------------------------------------------------------
     1 OT DIIS     0.80E-01    0.5     0.02438081      -806.1780841497 -8.06E+02
     2 OT DIIS     0.80E-01    0.4     0.03259081      -825.1684521543 -1.90E+01
     3 OT DIIS     0.80E-01    0.4     0.02098430      -832.6347777358 -7.47E+00
     4 OT DIIS     0.80E-01    0.4     0.01285796      -847.8819402758 -1.52E+01
     5 OT DIIS     0.80E-01    0.4     0.00721707      -855.1159722632 -7.23E+00
     6 OT DIIS     0.80E-01    0.4     0.00516734      -856.8463572638 -1.73E+00
     7 OT DIIS     0.80E-01    0.4     0.00341906      -858.3384670816 -1.49E+00
     8 OT DIIS     0.80E-01    0.4     0.00243616      -859.0622403652 -7.24E-01
     9 OT DIIS     0.80E-01    0.4     0.00178184      -859.5251334428 -4.63E-01
    10 OT DIIS     0.80E-01    0.4     0.00131567      -859.8202320996 -2.95E-01
    11 OT DIIS     0.80E-01    0.4     0.00108976      -859.9826664307 -1.62E-01
    12 OT DIIS     0.80E-01    0.4     0.00084955      -860.1061193420 -1.23E-01
    13 OT DIIS     0.80E-01    0.4     0.00068133      -860.2087036711 -1.03E-01
    14 OT DIIS     0.80E-01    0.4     0.00056953      -860.2685989954 -5.99E-02
    15 OT DIIS     0.80E-01    0.4     0.00046892      -860.3155280308 -4.69E-02
    16 OT DIIS     0.80E-01    0.4     0.00040880      -860.3507195565 -3.52E-02
    17 OT DIIS     0.80E-01    0.4     0.00033602      -860.3783086588 -2.76E-02
    18 OT DIIS     0.80E-01    0.4     0.00028810      -860.3986775123 -2.04E-02
    19 OT DIIS     0.80E-01    0.4     0.00025106      -860.4148340811 -1.62E-02
    20 OT DIIS     0.80E-01    0.4     0.00022412      -860.4264302253 -1.16E-02
    21 OT DIIS     0.80E-01    0.4     0.00019751      -860.4373619592 -1.09E-02
    22 OT DIIS     0.80E-01    0.4     0.00018056      -860.4447181390 -7.36E-03
    23 OT DIIS     0.80E-01    0.4     0.00016428      -860.4518214627 -7.10E-03
    24 OT DIIS     0.80E-01    0.4     0.00015064      -860.4571973779 -5.38E-03
    25 OT DIIS     0.80E-01    0.4     0.00013723      -860.4628749981 -5.68E-03
    26 OT DIIS     0.80E-01    0.4     0.00012139      -860.4691154971 -6.24E-03
    27 OT DIIS     0.80E-01    0.4     0.00011225      -860.4725847525 -3.47E-03
    28 OT DIIS     0.80E-01    0.4     0.00010023      -860.4765306669 -3.95E-03
    29 OT DIIS     0.80E-01    0.4     0.00009027      -860.4800380791 -3.51E-03
    30 OT DIIS     0.80E-01    0.4     0.00008358      -860.4818727460 -1.83E-03
    31 OT DIIS     0.80E-01    0.4     0.00007584      -860.4838686242 -2.00E-03
    32 OT DIIS     0.80E-01    0.4     0.00006898      -860.4859555346 -2.09E-03
    33 OT DIIS     0.80E-01    0.4     0.00006239      -860.4873880629 -1.43E-03
    34 OT DIIS     0.80E-01    0.4     0.00005718      -860.4881747089 -7.87E-04
    35 OT DIIS     0.80E-01    0.4     0.00005131      -860.4893895301 -1.21E-03
    36 OT DIIS     0.80E-01    0.4     0.00004559      -860.4902854360 -8.96E-04
    37 OT DIIS     0.80E-01    0.4     0.00004210      -860.4907593362 -4.74E-04
    38 OT DIIS     0.80E-01    0.4     0.00003778      -860.4913783860 -6.19E-04
    39 OT DIIS     0.80E-01    0.4     0.00003415      -860.4919276630 -5.49E-04
    40 OT DIIS     0.80E-01    0.4     0.00003139      -860.4922665038 -3.39E-04
    41 OT DIIS     0.80E-01    0.4     0.00002858      -860.4926359819 -3.69E-04
    42 OT DIIS     0.80E-01    0.4     0.00002693      -860.4928137600 -1.78E-04
    43 OT DIIS     0.80E-01    0.4     0.00002488      -860.4930814749 -2.68E-04
    44 OT DIIS     0.80E-01    0.4     0.00002370      -860.4932359784 -1.55E-04
    45 OT DIIS     0.80E-01    0.4     0.00002244      -860.4934188187 -1.83E-04
    46 OT DIIS     0.80E-01    0.4     0.00002108      -860.4936292240 -2.10E-04
    47 OT DIIS     0.80E-01    0.4     0.00001991      -860.4938310647 -2.02E-04
    48 OT DIIS     0.80E-01    0.4     0.00001879      -860.4940074880 -1.76E-04
    49 OT DIIS     0.80E-01    0.4     0.00001785      -860.4941877131 -1.80E-04
    50 OT DIIS     0.80E-01    0.4     0.00001698      -860.4943456902 -1.58E-04
    51 OT DIIS     0.80E-01    0.4     0.00001645      -860.4944466174 -1.01E-04
    52 OT DIIS     0.80E-01    0.4     0.00001588      -860.4945639103 -1.17E-04
    53 OT DIIS     0.80E-01    0.4     0.00001536      -860.4946851639 -1.21E-04
    54 OT DIIS     0.80E-01    0.4     0.00001504      -860.4947704705 -8.53E-05
    55 OT DIIS     0.80E-01    0.4     0.00001472      -860.4948548611 -8.44E-05
    56 OT DIIS     0.80E-01    0.4     0.00001443      -860.4949655478 -1.11E-04
    57 OT DIIS     0.80E-01    0.4     0.00001423      -860.4950444578 -7.89E-05
    58 OT DIIS     0.80E-01    0.4     0.00001405      -860.4951078946 -6.34E-05
    59 OT DIIS     0.80E-01    0.4     0.00001383      -860.4952071012 -9.92E-05
    60 OT DIIS     0.80E-01    0.4     0.00001362      -860.4953068488 -9.97E-05
    61 OT DIIS     0.80E-01    0.4     0.00001349      -860.4953849929 -7.81E-05
    62 OT DIIS     0.80E-01    0.4     0.00001334      -860.4954487407 -6.37E-05
    63 OT DIIS     0.80E-01    0.4     0.00001316      -860.4955535866 -1.05E-04
    64 OT DIIS     0.80E-01    0.4     0.00001299      -860.4956630048 -1.09E-04
    65 OT DIIS     0.80E-01    0.4     0.00001289      -860.4957270675 -6.41E-05
    66 OT DIIS     0.80E-01    0.4     0.00001271      -860.4958476980 -1.21E-04
    67 OT DIIS     0.80E-01    0.4     0.00001260      -860.4959668410 -1.19E-04
    68 OT DIIS     0.80E-01    0.4     0.00001253      -860.4960224602 -5.56E-05
    69 OT DIIS     0.80E-01    0.4     0.00001245      -860.4960760381 -5.36E-05
    70 OT DIIS     0.80E-01    0.4     0.00001238      -860.4961294155 -5.34E-05
    71 OT DIIS     0.80E-01    0.4     0.00001226      -860.4962360814 -1.07E-04
    72 OT DIIS     0.80E-01    0.4     0.00001218      -860.4963229307 -8.68E-05
    73 OT DIIS     0.80E-01    0.4     0.00001210      -860.4964009691 -7.80E-05
    74 OT DIIS     0.80E-01    0.4     0.00001203      -860.4964822751 -8.13E-05
    75 OT DIIS     0.80E-01    0.4     0.00001198      -860.4965353215 -5.30E-05
    76 OT DIIS     0.80E-01    0.4     0.00001195      -860.4965868813 -5.16E-05
    77 OT DIIS     0.80E-01    0.4     0.00001191      -860.4966223769 -3.55E-05
    78 OT DIIS     0.80E-01    0.4     0.00001183      -860.4967072471 -8.49E-05
    79 OT DIIS     0.80E-01    0.4     0.00001176      -860.4968015915 -9.43E-05
    80 OT DIIS     0.80E-01    0.4     0.00001180      -860.4968255767 -2.40E-05
    81 OT DIIS     0.80E-01    0.4     0.00001167      -860.4968885805 -6.30E-05
    82 OT DIIS     0.80E-01    0.4     0.00001162      -860.4969597186 -7.11E-05
    83 OT DIIS     0.80E-01    0.4     0.00001158      -860.4970107599 -5.10E-05
    84 OT DIIS     0.80E-01    0.4     0.00001153      -860.4971283441 -1.18E-04
    85 OT DIIS     0.80E-01    0.4     0.00001142      -860.4972372599 -1.09E-04
    86 OT DIIS     0.80E-01    0.4     0.00001138      -860.4973297510 -9.25E-05
    87 OT DIIS     0.80E-01    0.4     0.00001172      -860.4973661819 -3.64E-05
    88 OT DIIS     0.80E-01    0.4     0.00001133      -860.4973989750 -3.28E-05
    89 OT SD       0.80E-01    0.4     0.00001155      -860.4975440067 -1.45E-04
    90 OT DIIS     0.80E-01    0.4     0.00001128      -860.4975500259 -6.02E-06
    91 OT DIIS     0.80E-01    0.4     0.00001117      -860.4975890793 -3.91E-05
    92 OT DIIS     0.80E-01    0.4     0.00001115      -860.4976328188 -4.37E-05
    93 OT DIIS     0.80E-01    0.4     0.00001108      -860.4976952062 -6.24E-05
    94 OT SD       0.80E-01    0.4     0.00001114      -860.4978697225 -1.75E-04
    95 OT DIIS     0.80E-01    0.4     0.00001098      -860.4978753610 -5.64E-06
    96 OT DIIS     0.80E-01    0.4     0.00001099      -860.4979484039 -7.30E-05
    97 OT SD       0.80E-01    0.4     0.00001554      -860.4980137709 -6.54E-05
    98 OT SD       0.80E-01    0.4     0.00001250      -860.4980233839 -9.61E-06
    99 OT DIIS     0.80E-01    0.4     0.00001166      -860.4980302570 -6.87E-06
   100 OT DIIS     0.80E-01    0.4     0.00001097      -860.4981208011 -9.05E-05
   101 OT DIIS     0.80E-01    0.4     0.00001071      -860.4982235551 -1.03E-04
   102 OT DIIS     0.80E-01    0.4     0.00001068      -860.4982273581 -3.80E-06
   103 OT DIIS     0.80E-01    0.4     0.00001063      -860.4982729441 -4.56E-05
   104 OT DIIS     0.80E-01    0.4     0.00001053      -860.4983683041 -9.54E-05
   105 OT DIIS     0.80E-01    0.4     0.00001041      -860.4984981443 -1.30E-04
   106 OT DIIS     0.80E-01    0.4     0.00001034      -860.4985665991 -6.85E-05
   107 OT DIIS     0.80E-01    0.4     0.00001068      -860.4986026919 -3.61E-05
   108 OT DIIS     0.80E-01    0.4     0.00001055      -860.4986108352 -8.14E-06
   109 OT DIIS     0.80E-01    0.4     0.00001028      -860.4986341960 -2.34E-05
   110 OT DIIS     0.80E-01    0.4     0.00001037      -860.4986992148 -6.50E-05
   111 OT DIIS     0.80E-01    0.4     0.00000992      -860.4987613246 -6.21E-05

  *** SCF run converged in   111 steps ***


  Electronic density on regular grids:       -597.9999712110        0.0000287890
  Core density on regular grids:              597.9999926480       -0.0000073520
  Total charge density on r-space grids:        0.0000214371
  Total charge density g-space grids:           0.0000214371

  Overlap energy of the core charge distribution:               0.00002670413976
  Self energy of the core charge distribution:              -2013.95488501135696
  Core Hamiltonian energy:                                    626.99713198731240
  Hartree energy:                                             788.06793990295830
  Exchange-correlation energy:                               -261.11838966168762
  Dispersion energy:                                           -0.49058524592253

  Total energy:                                              -860.49876132455665

  outer SCF iter =    1 RMS gradient =   0.99E-05 energy =       -860.4987613246
  outer SCF loop converged in   1 iterations or  111 steps


   Calculate PDOS at iteration step                                  0
 OT| Eigensolver reached convergence in 237 iterations

   Compute           40    additional unoccupied KS orbitals

              ---- PDOS: start iteration on the KS states --- 

 !-----------------------------------------------------------------------------!
                     Mulliken Population Analysis

 #  Atom  Element  Kind  Atomic population                           Net charge
       1     C        1          4.001372                             -0.001372
       2     C        1          3.996303                              0.003697
       3     C        1          3.997591                              0.002409
       4     C        1          4.001634                             -0.001634
       5     C        1          4.001327                             -0.001327
       6     C        1          3.995866                              0.004134
       7     C        1          3.997251                              0.002749
       8     C        1          4.000765                             -0.000765
       9     C        1          4.001694                             -0.001694
      10     C        1          3.996203                              0.003797
      11     C        1          3.996844                              0.003156
      12     C        1          4.000373                             -0.000373
      13     C        1          4.001656                             -0.001656
      14     C        1          3.995635                              0.004365
      15     C        1          3.997466                              0.002534
      16     C        1          4.000423                             -0.000423
      17     C        1          4.001604                             -0.001604
      18     C        1          3.996024                              0.003976
      19     C        1          3.997740                              0.002260
      20     C        1          4.001186                             -0.001186
      21     C        1          4.001079                             -0.001079
      22     C        1          3.996150                              0.003850
      23     C        1          3.997296                              0.002704
      24     C        1          4.001809                             -0.001809
      25     C        1          4.001741                             -0.001741
      26     C        1          4.001730                             -0.001730
      27     C        1          4.001387                             -0.001387
      28     C        1          3.998662                              0.001338
      29     C        1          4.001269                             -0.001269
      30     C        1          4.001345                             -0.001345
      31     C        1          4.001259                             -0.001259
      32     C        1          3.998511                              0.001489
      33     C        1          4.001318                             -0.001318
      34     C        1          4.000879                             -0.000879
      35     C        1          4.000712                             -0.000712
      36     C        1          3.997471                              0.002529
      37     C        1          4.000776                             -0.000776
      38     C        1          3.997767                              0.002233
      39     C        1          4.003303                             -0.003303
      40     C        1          3.997418                              0.002582
      41     C        1          4.002301                             -0.002301
      42     C        1          4.000934                             -0.000934
      43     C        1          4.001159                             -0.001159
      44     C        1          3.998058                              0.001942
      45     C        1          4.001653                             -0.001653
      46     C        1          4.001395                             -0.001395
      47     C        1          4.001096                             -0.001096
      48     C        1          3.998793                              0.001207
      49     C        1          3.997011                              0.002989
      50     C        1          3.998516                              0.001484
      51     C        1          4.001380                             -0.001380
      52     C        1          3.996107                              0.003893
      53     C        1          3.996934                              0.003066
      54     C        1          3.998444                              0.001556
      55     C        1          4.001572                             -0.001572
      56     C        1          3.995527                              0.004473
      57     C        1          3.996483                              0.003517
      58     C        1          3.994973                              0.005027
      59     C        1          3.994879                              0.005121
      60     C        1          3.992470                              0.007530
      61     C        1          3.990970                              0.009030
      62     C        1          3.957349                              0.042651
      63     C        1          3.995531                              0.004469
      64     C        1          3.992982                              0.007018
      65     C        1          3.997249                              0.002751
      66     C        1          3.996590                              0.003410
      67     C        1          4.001467                             -0.001467
      68     C        1          3.995801                              0.004199
      69     C        1          3.997438                              0.002562
      70     C        1          3.998312                              0.001688
      71     C        1          4.001370                             -0.001370
      72     C        1          3.995941                              0.004059
      73     C        1          4.001830                             -0.001830
      74     C        1          3.996208                              0.003792
      75     C        1          3.997909                              0.002091
      76     C        1          4.001510                             -0.001510
      77     C        1          4.002314                             -0.002314
      78     C        1          3.995889                              0.004111
      79     C        1          3.998708                              0.001292
      80     C        1          4.000258                             -0.000258
      81     C        1          4.004312                             -0.004312
      82     C        1          3.990904                              0.009096
      83     C        1          3.991159                              0.008841
      84     C        1          3.961921                              0.038079
      85     C        1          4.305599                             -0.305599
      86     C        1          3.949865                              0.050135
      87     C        1          3.990029                              0.009971
      88     C        1          3.995118                              0.004882
      89     C        1          3.999251                              0.000749
      90     C        1          3.994633                              0.005367
      91     C        1          3.997287                              0.002713
      92     C        1          4.000413                             -0.000413
      93     C        1          4.001470                             -0.001470
      94     C        1          3.996089                              0.003911
      95     C        1          3.997682                              0.002318
      96     C        1          4.001405                             -0.001405
      97     C        1          4.001807                             -0.001807
      98     C        1          4.001560                             -0.001560
      99     C        1          4.001621                             -0.001621
     100     C        1          3.998851                              0.001149
     101     C        1          4.001420                             -0.001420
     102     C        1          4.001305                             -0.001305
     103     C        1          4.001364                             -0.001364
     104     C        1          3.997640                              0.002360
     105     C        1          4.000063                             -0.000063
     106     C        1          3.998157                              0.001843
     107     C        1          3.998397                              0.001603
     108     C        1          3.992116                              0.007884
     109     C        1          3.996286                              0.003714
     110     C        1          4.003850                             -0.003850
     111     C        1          4.001683                             -0.001683
     112     C        1          3.992893                              0.007107
     113     C        1          3.999776                              0.000224
     114     C        1          4.000066                             -0.000066
     115     C        1          4.000890                             -0.000890
     116     C        1          3.998118                              0.001882
     117     C        1          4.001879                             -0.001879
     118     C        1          4.001621                             -0.001621
     119     C        1          4.001274                             -0.001274
     120     C        1          3.999021                              0.000979
     121     C        1          3.997502                              0.002498
     122     C        1          3.998793                              0.001207
     123     C        1          4.001500                             -0.001500
     124     C        1          3.996180                              0.003820
     125     C        1          3.997064                              0.002936
     126     C        1          3.998629                              0.001371
     127     C        1          4.000903                             -0.000903
     128     C        1          3.995219                              0.004781
     129     C        1          3.996762                              0.003238
     130     C        1          3.998116                              0.001884
     131     C        1          4.000191                             -0.000191
     132     C        1          3.995398                              0.004602
     133     C        1          4.004564                             -0.004564
     134     C        1          3.999639                              0.000361
     135     C        1          4.002556                             -0.002556
     136     C        1          3.994855                              0.005145
     137     C        1          3.996742                              0.003258
     138     C        1          3.997972                              0.002028
     139     C        1          4.001876                             -0.001876
     140     C        1          3.995892                              0.004108
     141     C        1          3.997500                              0.002500
     142     C        1          3.998591                              0.001409
     143     C        1          4.001550                             -0.001550
     144     C        1          3.996249                              0.003751
     145     O        2          6.111940                             -0.111940
     146     H        3          0.894395                              0.105605
     147     H        3          0.853805                              0.146195
     148     I        4          7.080571                             -0.080571
     149     I        4          7.060098                             -0.060098
 # Total charge                            598.000000                  0.000000

 !-----------------------------------------------------------------------------!

 Hirshfeld charge iterations: Residuals ...
   0.091   0.015   0.004
 !-----------------------------------------------------------------------------!
                           Hirshfeld Charges

  #Atom  Element  Kind  Ref Charge     Population                    Net charge
      1       C      1       4.004          4.004                        -0.004
      2       C      1       3.990          3.990                         0.010
      3       C      1       3.994          3.994                         0.006
      4       C      1       4.004          4.004                        -0.004
      5       C      1       4.004          4.004                        -0.004
      6       C      1       3.989          3.989                         0.011
      7       C      1       3.994          3.994                         0.006
      8       C      1       4.002          4.002                        -0.002
      9       C      1       4.006          4.006                        -0.006
     10       C      1       3.990          3.990                         0.010
     11       C      1       3.994          3.994                         0.006
     12       C      1       4.001          4.001                        -0.001
     13       C      1       4.004          4.004                        -0.004
     14       C      1       3.990          3.990                         0.010
     15       C      1       3.995          3.995                         0.005
     16       C      1       4.002          4.002                        -0.002
     17       C      1       4.006          4.006                        -0.006
     18       C      1       3.989          3.989                         0.011
     19       C      1       3.995          3.995                         0.005
     20       C      1       4.003          4.003                        -0.003
     21       C      1       4.004          4.004                        -0.004
     22       C      1       3.990          3.990                         0.010
     23       C      1       3.994          3.994                         0.006
     24       C      1       4.004          4.004                        -0.004
     25       C      1       4.005          4.005                        -0.005
     26       C      1       4.005          4.005                        -0.005
     27       C      1       4.004          4.004                        -0.004
     28       C      1       3.996          3.996                         0.004
     29       C      1       4.004          4.004                        -0.004
     30       C      1       4.004          4.004                        -0.004
     31       C      1       4.004          4.004                        -0.004
     32       C      1       3.996          3.996                         0.004
     33       C      1       4.005          4.005                        -0.005
     34       C      1       4.003          4.003                        -0.003
     35       C      1       4.006          4.006                        -0.006
     36       C      1       3.994          3.994                         0.006
     37       C      1       4.004          4.004                        -0.004
     38       C      1       3.998          3.998                         0.002
     39       C      1       4.012          4.012                        -0.012
     40       C      1       3.992          3.992                         0.008
     41       C      1       4.008          4.008                        -0.008
     42       C      1       4.002          4.002                        -0.002
     43       C      1       4.004          4.004                        -0.004
     44       C      1       3.995          3.995                         0.005
     45       C      1       4.005          4.005                        -0.005
     46       C      1       4.004          4.004                        -0.004
     47       C      1       4.004          4.004                        -0.004
     48       C      1       3.997          3.997                         0.003
     49       C      1       3.993          3.993                         0.007
     50       C      1       3.996          3.996                         0.004
     51       C      1       4.004          4.004                        -0.004
     52       C      1       3.990          3.990                         0.010
     53       C      1       3.993          3.993                         0.007
     54       C      1       3.996          3.996                         0.004
     55       C      1       4.005          4.005                        -0.005
     56       C      1       3.989          3.989                         0.011
     57       C      1       3.993          3.993                         0.007
     58       C      1       3.990          3.990                         0.010
     59       C      1       4.021          4.021                        -0.021
     60       C      1       3.982          3.982                         0.018
     61       C      1       4.011          4.011                        -0.011
     62       C      1       3.980          3.980                         0.020
     63       C      1       4.025          4.025                        -0.025
     64       C      1       3.985          3.985                         0.015
     65       C      1       3.995          3.995                         0.005
     66       C      1       3.992          3.992                         0.008
     67       C      1       4.006          4.006                        -0.006
     68       C      1       3.989          3.989                         0.011
     69       C      1       3.994          3.994                         0.006
     70       C      1       3.995          3.995                         0.005
     71       C      1       4.005          4.005                        -0.005
     72       C      1       3.990          3.990                         0.010
     73       C      1       4.005          4.005                        -0.005
     74       C      1       3.990          3.990                         0.010
     75       C      1       3.995          3.995                         0.005
     76       C      1       4.003          4.003                        -0.003
     77       C      1       4.007          4.007                        -0.007
     78       C      1       3.988          3.988                         0.012
     79       C      1       3.998          3.998                         0.002
     80       C      1       4.000          4.000                         0.000
     81       C      1       4.015          4.015                        -0.015
     82       C      1       3.979          3.979                         0.021
     83       C      1       4.012          4.012                        -0.012
     84       C      1       3.990          3.990                         0.010
     85       C      1       3.941          3.941                         0.059
     86       C      1       3.958          3.958                         0.042
     87       C      1       4.005          4.005                        -0.005
     88       C      1       3.990          3.990                         0.010
     89       C      1       4.005          4.005                        -0.005
     90       C      1       3.988          3.988                         0.012
     91       C      1       3.995          3.995                         0.005
     92       C      1       4.002          4.002                        -0.002
     93       C      1       4.005          4.005                        -0.005
     94       C      1       3.989          3.989                         0.011
     95       C      1       3.995          3.995                         0.005
     96       C      1       4.003          4.003                        -0.003
     97       C      1       4.005          4.005                        -0.005
     98       C      1       4.004          4.004                        -0.004
     99       C      1       4.005          4.005                        -0.005
    100       C      1       3.997          3.997                         0.003
    101       C      1       4.005          4.005                        -0.005
    102       C      1       4.003          4.003                        -0.003
    103       C      1       4.005          4.005                        -0.005
    104       C      1       3.995          3.995                         0.005
    105       C      1       4.004          4.004                        -0.004
    106       C      1       3.998          3.998                         0.002
    107       C      1       3.990          3.990                         0.010
    108       C      1       3.965          3.965                         0.035
    109       C      1       3.990          3.990                         0.010
    110       C      1       3.955          3.955                         0.045
    111       C      1       3.992          3.992                         0.008
    112       C      1       3.982          3.982                         0.018
    113       C      1       4.004          4.004                        -0.004
    114       C      1       4.002          4.002                        -0.002
    115       C      1       4.004          4.004                        -0.004
    116       C      1       3.996          3.996                         0.004
    117       C      1       4.006          4.006                        -0.006
    118       C      1       4.004          4.004                        -0.004
    119       C      1       4.004          4.004                        -0.004
    120       C      1       3.997          3.997                         0.003
    121       C      1       3.994          3.994                         0.006
    122       C      1       3.997          3.997                         0.003
    123       C      1       4.005          4.005                        -0.005
    124       C      1       3.990          3.990                         0.010
    125       C      1       3.994          3.994                         0.006
    126       C      1       3.996          3.996                         0.004
    127       C      1       4.004          4.004                        -0.004
    128       C      1       3.988          3.988                         0.012
    129       C      1       3.994          3.994                         0.006
    130       C      1       3.996          3.996                         0.004
    131       C      1       4.002          4.002                        -0.002
    132       C      1       3.971          3.971                         0.029
    133       C      1       3.972          3.972                         0.028
    134       C      1       3.988          3.988                         0.012
    135       C      1       4.004          4.004                        -0.004
    136       C      1       3.982          3.982                         0.018
    137       C      1       3.994          3.994                         0.006
    138       C      1       3.995          3.995                         0.005
    139       C      1       4.006          4.006                        -0.006
    140       C      1       3.989          3.989                         0.011
    141       C      1       3.994          3.994                         0.006
    142       C      1       3.996          3.996                         0.004
    143       C      1       4.005          4.005                        -0.005
    144       C      1       3.990          3.990                         0.010
    145       O      2       6.963          6.963                        -0.963
    146       H      3       0.271          0.271                         0.729
    147       H      3       0.613          0.613                         0.387
    148       I      4       7.222          7.222                        -0.222
    149       I      4       7.303          7.303                        -0.303

  Total Charge                                                            0.093
 !-----------------------------------------------------------------------------!

 ENERGY| Total FORCE_EVAL ( QS ) energy [hartree]           -860.498761324556654

 -------------------------------------------------------------------------------
 -                                                                             -
 -                                DBCSR STATISTICS                             -
 -                                                                             -
 -------------------------------------------------------------------------------
 COUNTER                                    TOTAL       BLAS       SMM       ACC
 flops     5 x    11 x    11                 4840     100.0%      0.0%      0.0%     
 flops     5 x     8 x     8                15360     100.0%      0.0%      0.0%     
 flops     5 x    32 x    11                63360     100.0%      0.0%      0.0%     
 flops     5 x    11 x    32                63360     100.0%      0.0%      0.0%     
 flops    11 x    11 x   478               115676     100.0%      0.0%      0.0%     
 flops    43 x     8 x    75               309600     100.0%      0.0%      0.0%     
 flops    11 x    11 x   481               349206     100.0%      0.0%      0.0%     
 flops    43 x     8 x    96               396288     100.0%      0.0%      0.0%     
 flops    64 x     8 x    75               460800     100.0%      0.0%      0.0%     
 flops    43 x     8 x    64               528384     100.0%      0.0%      0.0%     
 flops     5 x    11 x     5               530200     100.0%      0.0%      0.0%     
 flops     5 x     8 x     5               769600     100.0%      0.0%      0.0%     
 flops    13 x    11 x    11               924924     100.0%      0.0%      0.0%     
 flops     8 x     8 x     8              1098752     100.0%      0.0%      0.0%     
 flops    43 x    32 x    75              1238400     100.0%      0.0%      0.0%     
 flops     5 x     5 x    75              1271250     100.0%      0.0%      0.0%     
 flops    32 x    11 x   478              1346048     100.0%      0.0%      0.0%     
 flops    32 x     8 x    75              1382400     100.0%      0.0%      0.0%     
 flops    43 x    32 x    96              1585152     100.0%      0.0%      0.0%     
 flops     5 x     5 x    96              1627200     100.0%      0.0%      0.0%     
 flops    11 x    32 x   478              1682560     100.0%      0.0%      0.0%     
 flops    64 x    32 x    75              1843200     100.0%      0.0%      0.0%     
 flops   257 x     8 x    75              1850400     100.0%      0.0%      0.0%     
 flops   260 x     8 x    75              1872000     100.0%      0.0%      0.0%     
 flops    43 x     8 x   478              1973184     100.0%      0.0%      0.0%     
 flops     5 x    32 x    32              2088960     100.0%      0.0%      0.0%     
 flops    43 x    32 x    64              2113536     100.0%      0.0%      0.0%     
 flops     5 x     5 x    64              2169600     100.0%      0.0%      0.0%     
 flops    13 x     8 x     8              2935296     100.0%      0.0%      0.0%     
 flops   208 x     8 x    75              2995200     100.0%      0.0%      0.0%     
 flops   221 x     8 x    75              3182400     100.0%      0.0%      0.0%     
 flops   273 x     8 x    75              3931200     100.0%      0.0%      0.0%     
 flops    32 x    11 x   481              4063488     100.0%      0.0%      0.0%     
 flops     8 x     8 x    32              4395008     100.0%      0.0%      0.0%     
 flops     8 x    32 x     8              4395008     100.0%      0.0%      0.0%     
 flops    32 x     8 x     8              4395008     100.0%      0.0%      0.0%     
 flops    11 x    32 x   481              5079360     100.0%      0.0%      0.0%     
 flops    32 x    32 x    75              5529600     100.0%      0.0%      0.0%     
 flops    43 x     8 x   481              5956704     100.0%      0.0%      0.0%     
 flops    51 x     8 x    64              6214656     100.0%      0.0%      0.0%     
 flops   257 x    32 x    75              7401600     100.0%      0.0%      0.0%     
 flops   260 x    32 x    75              7488000     100.0%      0.0%      0.0%     
 flops    43 x    32 x   478              7892736     100.0%      0.0%      0.0%     
 flops    51 x     8 x    83              8059632     100.0%      0.0%      0.0%     
 flops   208 x    32 x    75             11980800     100.0%      0.0%      0.0%     
 flops    13 x    32 x    11             12108096     100.0%      0.0%      0.0%     
 flops    13 x    11 x    32             12108096     100.0%      0.0%      0.0%     
 flops   221 x    32 x    75             12729600     100.0%      0.0%      0.0%     
 flops   273 x    32 x    75             15724800     100.0%      0.0%      0.0%     
 flops    64 x     8 x    64             16384000     100.0%      0.0%      0.0%     
 flops     5 x    32 x     5             16960000     100.0%      0.0%      0.0%     
 flops    32 x    32 x     8             17580032     100.0%      0.0%      0.0%     
 flops     8 x    32 x    32             17580032     100.0%      0.0%      0.0%     
 flops    32 x     8 x    32             17580032     100.0%      0.0%      0.0%     
 flops    51 x     8 x    96             18643968     100.0%      0.0%      0.0%     
 flops    51 x    64 x   478             18722304     100.0%      0.0%      0.0%     
 flops    64 x     8 x    83             20228096     100.0%      0.0%      0.0%     
 flops    32 x     8 x    64             21856256     100.0%      0.0%      0.0%     
 flops   257 x     8 x     8             23027200     100.0%      0.0%      0.0%     
 flops   260 x     8 x     8             23296000     100.0%      0.0%      0.0%     
 flops    43 x    32 x   481             23826816     100.0%      0.0%      0.0%     
 flops    51 x    83 x   478             24280488     100.0%      0.0%      0.0%     
 flops    51 x    32 x    64             24858624     100.0%      0.0%      0.0%     
 flops    32 x     8 x    83             25285120     100.0%      0.0%      0.0%     
 flops     8 x     8 x   478             28328192     100.0%      0.0%      0.0%     
 flops    51 x    32 x    83             32238528     100.0%      0.0%      0.0%     
 flops   257 x     8 x    64             34475008     100.0%      0.0%      0.0%     
 flops   260 x     8 x    64             34877440     100.0%      0.0%      0.0%     
 flops   208 x     8 x     8             37273600     100.0%      0.0%      0.0%     
 flops   221 x     8 x     8             39603200     100.0%      0.0%      0.0%     
 flops   257 x     8 x    83             40614224     100.0%      0.0%      0.0%     
 flops   260 x     8 x    83             41088320     100.0%      0.0%      0.0%     
 flops    51 x     8 x   478             46415712     100.0%      0.0%      0.0%     
 flops    64 x     8 x    96             47382528     100.0%      0.0%      0.0%     
 flops   273 x     8 x     8             48921600     100.0%      0.0%      0.0%     
 flops   208 x     8 x    64             55803904     100.0%      0.0%      0.0%     
 flops    51 x    96 x   478             56166912     100.0%      0.0%      0.0%     
 flops    51 x    64 x   481             56519424     100.0%      0.0%      0.0%     
 flops   221 x     8 x    64             59291648     100.0%      0.0%      0.0%     
 flops    32 x     8 x    96             60260352     100.0%      0.0%      0.0%     
 flops    64 x    83 x   478             60939264     100.0%      0.0%      0.0%     
 flops    64 x    32 x    64             65536000     100.0%      0.0%      0.0%     
 flops   208 x     8 x    83             65741312     100.0%      0.0%      0.0%     
 flops   221 x     8 x    83             69850144     100.0%      0.0%      0.0%     
 flops    32 x    32 x    32             70320128     100.0%      0.0%      0.0%     
 flops   273 x     8 x    64             73242624     100.0%      0.0%      0.0%     
 flops    51 x    83 x   481             73298628     100.0%      0.0%      0.0%     
 flops    51 x    32 x    96             74575872     100.0%      0.0%      0.0%     
 flops    32 x    83 x   478             76174080     100.0%      0.0%      0.0%     
 flops    64 x    32 x    83             80912384     100.0%      0.0%      0.0%     
 flops     8 x     8 x   481             85517952     100.0%      0.0%      0.0%     
 flops    13 x    11 x     5             85812870     100.0%      0.0%      0.0%     
 flops     5 x    11 x    13             85812870     100.0%      0.0%      0.0%     
 flops   273 x     8 x    83             86285472     100.0%      0.0%      0.0%     
 flops    32 x    32 x    64             87425024     100.0%      0.0%      0.0%     
 flops   257 x     8 x    32             92108800     100.0%      0.0%      0.0%     
 flops   257 x    32 x     8             92108800     100.0%      0.0%      0.0%     
 flops   260 x     8 x    32             93184000     100.0%      0.0%      0.0%     
 flops   260 x    32 x     8             93184000     100.0%      0.0%      0.0%     
 flops   257 x     8 x    96             96319488     100.0%      0.0%      0.0%     
 flops   260 x     8 x    96             97443840     100.0%      0.0%      0.0%     
 flops    32 x    32 x    83            101140480     100.0%      0.0%      0.0%     
 flops     8 x    32 x   478            113312768     100.0%      0.0%      0.0%     
 flops    64 x     8 x   478            119431168     100.0%      0.0%      0.0%     
 flops    13 x     8 x     5            124559760     100.0%      0.0%      0.0%     
 flops     5 x     8 x    13            124559760     100.0%      0.0%      0.0%     
 flops    13 x     5 x    75            136841250     100.0%      0.0%      0.0%     
 flops   257 x    32 x    64            137900032     100.0%      0.0%      0.0%     
 flops     5 x    13 x    75            137933250     100.0%      0.0%      0.0%     
 flops   260 x    32 x    64            139509760     100.0%      0.0%      0.0%     
 flops    51 x     8 x   481            140121072     100.0%      0.0%      0.0%     
 flops   208 x    32 x     8            149094400     100.0%      0.0%      0.0%     
 flops   208 x     8 x    32            149094400     100.0%      0.0%      0.0%     
 flops   208 x     8 x    96            155910144     100.0%      0.0%      0.0%     
 flops   221 x     8 x    32            158412800     100.0%      0.0%      0.0%     
 flops   221 x    32 x     8            158412800     100.0%      0.0%      0.0%     
 flops   257 x    32 x    83            162456896     100.0%      0.0%      0.0%     
 flops   260 x    32 x    83            164353280     100.0%      0.0%      0.0%     
 flops   221 x     8 x    96            165654528     100.0%      0.0%      0.0%     
 flops    51 x    96 x   481            169558272     100.0%      0.0%      0.0%     
 flops    13 x     5 x    96            175156800     100.0%      0.0%      0.0%     
 flops     5 x    13 x    96            176554560     100.0%      0.0%      0.0%     
 flops    64 x    83 x   481            183965184     100.0%      0.0%      0.0%     
 flops    51 x    32 x   478            185662848     100.0%      0.0%      0.0%     
 flops    64 x    32 x    96            189530112     100.0%      0.0%      0.0%     
 flops   273 x    32 x     8            195686400     100.0%      0.0%      0.0%     
 flops   273 x     8 x    32            195686400     100.0%      0.0%      0.0%     
 flops   273 x     8 x    96            204632064     100.0%      0.0%      0.0%     
 flops   208 x    32 x    64            223215616     100.0%      0.0%      0.0%     
 flops    32 x    83 x   481            229956480     100.0%      0.0%      0.0%     
 flops    13 x     5 x    64            233542400     100.0%      0.0%      0.0%     
 flops     5 x    13 x    64            235406080     100.0%      0.0%      0.0%     
 flops   221 x    32 x    64            237166592     100.0%      0.0%      0.0%     
 flops    32 x    32 x    96            241041408     100.0%      0.0%      0.0%     
 flops   208 x    32 x    83            262965248     100.0%      0.0%      0.0%     
 flops    32 x     8 x   478            267741184     100.0%      0.0%      0.0%     
 flops   221 x    32 x    83            279400576     100.0%      0.0%      0.0%     
 flops   273 x    32 x    64            292970496     100.0%      0.0%      0.0%     
 flops     8 x    32 x   481            342071808     100.0%      0.0%      0.0%     
 flops   273 x    32 x    83            345141888     100.0%      0.0%      0.0%     
 flops    64 x     8 x   481            360542208     100.0%      0.0%      0.0%     
 flops   257 x    32 x    32            368435200     100.0%      0.0%      0.0%     
 flops   260 x    32 x    32            372736000     100.0%      0.0%      0.0%     
 flops   257 x    32 x    96            385277952     100.0%      0.0%      0.0%     
 flops   260 x    32 x    96            389775360     100.0%      0.0%      0.0%     
 flops    13 x    32 x    32            399200256     100.0%      0.0%      0.0%     
 flops    64 x    32 x   478            477724672     100.0%      0.0%      0.0%     
 flops    43 x    75 x    75            480363750     100.0%      0.0%      0.0%     
 flops    51 x    32 x   481            560484288     100.0%      0.0%      0.0%     
 flops   208 x    32 x    32            596377600     100.0%      0.0%      0.0%     
 flops    43 x    75 x    96            614865600     100.0%      0.0%      0.0%     
 flops    43 x    96 x    75            614865600     100.0%      0.0%      0.0%     
 flops   208 x    32 x    96            623640576     100.0%      0.0%      0.0%     
 flops   221 x    32 x    32            633651200     100.0%      0.0%      0.0%     
 flops   221 x    32 x    96            662618112     100.0%      0.0%      0.0%     
 flops    64 x    75 x    75            714960000     100.0%      0.0%      0.0%     
 flops   273 x    32 x    32            782745600     100.0%      0.0%      0.0%     
 flops    43 x    96 x    96            787027968     100.0%      0.0%      0.0%     
 flops    32 x     8 x   481            808264704     100.0%      0.0%      0.0%     
 flops   273 x    32 x    96            818528256     100.0%      0.0%      0.0%     
 flops    43 x    64 x    75            819820800     100.0%      0.0%      0.0%     
 flops    43 x    75 x    64            819820800     100.0%      0.0%      0.0%     
 flops    64 x    96 x    75            915148800     100.0%      0.0%      0.0%     
 flops    64 x    75 x    96            915148800     100.0%      0.0%      0.0%     
 flops    43 x    64 x    96           1049370624     100.0%      0.0%      0.0%     
 flops    43 x    96 x    64           1049370624     100.0%      0.0%      0.0%     
 flops    32 x    32 x   478           1115017216     100.0%      0.0%      0.0%     
 flops    64 x    96 x    96           1171390464     100.0%      0.0%      0.0%     
 flops    64 x    64 x    75           1220198400     100.0%      0.0%      0.0%     
 flops    64 x    75 x    64           1220198400     100.0%      0.0%      0.0%     
 flops    43 x    75 x   478           1384311900     100.0%      0.0%      0.0%     
 flops    43 x    64 x    64           1399160832     100.0%      0.0%      0.0%     
 flops    64 x    32 x   481           1442168832     100.0%      0.0%      0.0%     
 flops    64 x    96 x    64           1561853952     100.0%      0.0%      0.0%     
 flops    64 x    64 x    96           1561853952     100.0%      0.0%      0.0%     
 flops   257 x    75 x    75           1598861250     100.0%      0.0%      0.0%     
 flops   260 x    75 x    75           1617525000     100.0%      0.0%      0.0%     
 flops    43 x    96 x   478           1771919232     100.0%      0.0%      0.0%     
 flops   257 x    75 x    96           2046542400     100.0%      0.0%      0.0%     
 flops   257 x    96 x    75           2046542400     100.0%      0.0%      0.0%     
 flops    64 x    75 x   478           2060371200     100.0%      0.0%      0.0%     
 flops   257 x    75 x   478           2063812800     100.0%      0.0%      0.0%     
 flops   260 x    75 x    96           2070432000     100.0%      0.0%      0.0%     
 flops   260 x    96 x    75           2070432000     100.0%      0.0%      0.0%     
 flops    64 x    64 x    64           2082471936     100.0%      0.0%      0.0%     
 flops   260 x    75 x   478           2087904000     100.0%      0.0%      0.0%     
 flops    32 x    75 x    75           2144880000     100.0%      0.0%      0.0%     
 flops    43 x    64 x   478           2362558976     100.0%      0.0%      0.0%     
 flops   208 x    75 x    75           2588040000     100.0%      0.0%      0.0%     
 flops   257 x    96 x    96           2619574272     100.0%      0.0%      0.0%     
 flops   257 x    96 x   478           2641680384     100.0%      0.0%      0.0%     
 flops   260 x    96 x    96           2650152960     100.0%      0.0%      0.0%     
 flops   260 x    96 x   478           2672517120     100.0%      0.0%      0.0%     
 flops   257 x    64 x    75           2728723200     100.0%      0.0%      0.0%     
 flops   257 x    75 x    64           2728723200     100.0%      0.0%      0.0%     
 flops    13 x    32 x     5           2744976000     100.0%      0.0%      0.0%     
 flops     5 x    32 x    13           2744976000     100.0%      0.0%      0.0%     
 flops    32 x    96 x    75           2745446400     100.0%      0.0%      0.0%     
 flops    32 x    75 x    96           2745446400     100.0%      0.0%      0.0%     
 flops   221 x    75 x    75           2749792500     100.0%      0.0%      0.0%     
 flops   260 x    64 x    75           2760576000     100.0%      0.0%      0.0%     
 flops   260 x    75 x    64           2760576000     100.0%      0.0%      0.0%     
 flops    64 x    96 x   478           2778243072     100.0%      0.0%      0.0%     
 flops   208 x    96 x    75           3312691200     100.0%      0.0%      0.0%     
 flops   208 x    75 x    96           3312691200     100.0%      0.0%      0.0%     
 flops   208 x    75 x   478           3340646400     100.0%      0.0%      0.0%     
 flops    32 x    32 x   481           3366045696     100.0%      0.0%      0.0%     
 flops   273 x    75 x    75           3396802500     100.0%      0.0%      0.0%     
 flops   257 x    64 x    96           3492765696     100.0%      0.0%      0.0%     
 flops   257 x    96 x    64           3492765696     100.0%      0.0%      0.0%     
 flops    32 x    96 x    96           3514171392     100.0%      0.0%      0.0%     
 flops   221 x    75 x    96           3519734400     100.0%      0.0%      0.0%     
 flops   221 x    96 x    75           3519734400     100.0%      0.0%      0.0%     
 flops   257 x    64 x   478           3522240512     100.0%      0.0%      0.0%     
 flops   260 x    64 x    96           3533537280     100.0%      0.0%      0.0%     
 flops   260 x    96 x    64           3533537280     100.0%      0.0%      0.0%     
 flops   221 x    75 x   478           3549436800     100.0%      0.0%      0.0%     
 flops   260 x    64 x   478           3563356160     100.0%      0.0%      0.0%     
 flops    64 x    64 x   478           3563356160     100.0%      0.0%      0.0%     
 flops    32 x    64 x    75           3660595200     100.0%      0.0%      0.0%     
 flops    32 x    75 x    64           3660595200     100.0%      0.0%      0.0%     
 flops    43 x    75 x   481           4179000150     100.0%      0.0%      0.0%     
 flops   208 x    96 x    96           4240244736     100.0%      0.0%      0.0%     
 flops   208 x    96 x   478           4276027392     100.0%      0.0%      0.0%     
 flops   273 x    96 x    75           4347907200     100.0%      0.0%      0.0%     
 flops   273 x    75 x    96           4347907200     100.0%      0.0%      0.0%     
 flops   273 x    75 x   478           4384598400     100.0%      0.0%      0.0%     
 flops   208 x    64 x    75           4416921600     100.0%      0.0%      0.0%     
 flops   208 x    75 x    64           4416921600     100.0%      0.0%      0.0%     
 flops   221 x    96 x    96           4505260032     100.0%      0.0%      0.0%     
 flops   221 x    96 x   478           4543279104     100.0%      0.0%      0.0%     
 flops   257 x    64 x    64           4657020928     100.0%      0.0%      0.0%     
 flops    32 x    96 x    64           4685561856     100.0%      0.0%      0.0%     
 flops    32 x    64 x    96           4685561856     100.0%      0.0%      0.0%     
 flops   221 x    64 x    75           4692979200     100.0%      0.0%      0.0%     
 flops   221 x    75 x    64           4692979200     100.0%      0.0%      0.0%     
 flops   260 x    64 x    64           4711383040     100.0%      0.0%      0.0%     
 flops    43 x    96 x   481           5349120192     100.0%      0.0%      0.0%     
 flops   273 x    96 x    96           5565321216     100.0%      0.0%      0.0%     
 flops   273 x    96 x   478           5612285952     100.0%      0.0%      0.0%     
 flops   208 x    96 x    64           5653659648     100.0%      0.0%      0.0%     
 flops   208 x    64 x    96           5653659648     100.0%      0.0%      0.0%     
 flops   208 x    64 x   478           5701369856     100.0%      0.0%      0.0%     
 flops   273 x    64 x    75           5797209600     100.0%      0.0%      0.0%     
 flops   273 x    75 x    64           5797209600     100.0%      0.0%      0.0%     
 flops   221 x    64 x    96           6007013376     100.0%      0.0%      0.0%     
 flops   221 x    96 x    64           6007013376     100.0%      0.0%      0.0%     
 flops   221 x    64 x   478           6057705472     100.0%      0.0%      0.0%     
 flops    32 x    75 x   478           6181113600     100.0%      0.0%      0.0%     
 flops    64 x    75 x   481           6219907200     100.0%      0.0%      0.0%     
 flops   257 x    75 x   481           6230296800     100.0%      0.0%      0.0%     
 flops    32 x    64 x    64           6247415808     100.0%      0.0%      0.0%     
 flops   260 x    75 x   481           6303024000     100.0%      0.0%      0.0%     
 flops    43 x    64 x   481           7132160256     100.0%      0.0%      0.0%     
 flops   273 x    96 x    64           7420428288     100.0%      0.0%      0.0%     
 flops   273 x    64 x    96           7420428288     100.0%      0.0%      0.0%     
 flops   273 x    64 x   478           7483047936     100.0%      0.0%      0.0%     
 flops   208 x    64 x    64           7538212864     100.0%      0.0%      0.0%     
 flops   257 x    96 x   481           7974779904     100.0%      0.0%      0.0%     
 flops   221 x    64 x    64           8009351168     100.0%      0.0%      0.0%     
 flops   260 x    96 x   481           8067870720     100.0%      0.0%      0.0%     
 flops    32 x    96 x   478           8088035328     100.0%      0.0%      0.0%     
 flops    64 x    96 x   481           8387039232     100.0%      0.0%      0.0%     
 flops   273 x    64 x    64           9893904384     100.0%      0.0%      0.0%     
 flops   208 x    75 x   481          10084838400     100.0%      0.0%      0.0%     
 flops    32 x    64 x   478          10607837184     100.0%      0.0%      0.0%     
 flops   257 x    64 x   481          10633039872     100.0%      0.0%      0.0%     
 flops   221 x    75 x   481          10715140800     100.0%      0.0%      0.0%     
 flops   260 x    64 x   481          10757160960     100.0%      0.0%      0.0%     
 flops    64 x    64 x   481          10757160960     100.0%      0.0%      0.0%     
 flops   208 x    96 x   481          12908593152     100.0%      0.0%      0.0%     
 flops   273 x    75 x   481          13236350400     100.0%      0.0%      0.0%     
 flops   221 x    96 x   481          13715380224     100.0%      0.0%      0.0%     
 flops    13 x    11 x    13          14925304966     100.0%      0.0%      0.0%     
 flops   273 x    96 x   481          16942528512     100.0%      0.0%      0.0%     
 flops   208 x    64 x   481          17211457536     100.0%      0.0%      0.0%     
 flops   221 x    64 x   481          18287173632     100.0%      0.0%      0.0%     
 flops    32 x    75 x   481          18659721600     100.0%      0.0%      0.0%     
 flops    13 x     8 x    13          21664493968     100.0%      0.0%      0.0%     
 flops   273 x    64 x   481          22590038016     100.0%      0.0%      0.0%     
 flops    13 x    13 x    75          24130715700     100.0%      0.0%      0.0%     
 flops    32 x    96 x   481          24416391168     100.0%      0.0%      0.0%     
 flops    13 x    13 x    96          30887316096     100.0%      0.0%      0.0%     
 flops    32 x    64 x   481          32023240704     100.0%      0.0%      0.0%     
 flops    13 x    13 x    64          41183088128     100.0%      0.0%      0.0%     
 flops    13 x    32 x    13         477429596800     100.0%      0.0%      0.0%     
 flops inhomo. stacks                           0       0.0%      0.0%      0.0%
 flops total                         1.286303E+12     100.0%      0.0%      0.0%
 flops max/rank                    123.599953E+09     100.0%      0.0%      0.0%
 matmuls inhomo. stacks                         0       0.0%      0.0%      0.0%
 matmuls total                           62134882     100.0%      0.0%      0.0%
 number of processed stacks                470617     100.0%      0.0%      0.0%
 average stack size                                   132.0       0.0       0.0
 marketing flops                   250.610684E-24
 -------------------------------------------------------------------------------
 # multiplications                           5587
 max memory usage/rank               2.235015E+09
 # max total images/rank                        1
 # max 3D layers                                1
 # MPI messages exchanged                  536352
 MPI messages size (bytes):
  total size                      -116.478244E+33
  min size                           0.000000E+00
  max size                           1.850888E+06
  average size                    -217.167543E+27
 MPI breakdown and total messages size (bytes):
             size <=      128              164064                        0
       128 < size <=     8192               37260                125936256
      8192 < size <=    32768               60849               1905428568
     32768 < size <=   131072              123939               8088783000
    131072 < size <=  4194304              150240              91372520208
   4194304 < size <= 16777216                   0                        0
  16777216 < size                               0                        0
 -------------------------------------------------------------------------------
 -                                                                             -
 -                      DBCSR MESSAGE PASSING PERFORMANCE                      -
 -                                                                             -
 -------------------------------------------------------------------------------
 ROUTINE             CALLS      AVE VOLUME [Bytes]
 MP_Bcast              287                     12.
 MP_Allreduce        27067                      8.
 MP_Alltoall         19664                  15829.
 MP_ISend            89352                  82294.
 MP_IRecv            89352                  80004.
 -------------------------------------------------------------------------------

 -------------------------------------------------------------------------------
 -                                                                             -
 -                                GRID STATISTICS                              -
 -                                                                             -
 -------------------------------------------------------------------------------
 LP    KERNEL             BACKEND                              COUNT     PERCENT
 4     collocate ortho    CPU                                8442000      48.84%
 4     integrate ortho    CPU                                8366625      48.41%
 3     collocate ortho    CPU                                 222880       1.29%
 3     integrate ortho    CPU                                 220890       1.28%
 0     collocate general  CPU                                   9536       0.06%
 2     collocate ortho    CPU                                   7504       0.04%
 2     integrate ortho    CPU                                   7437       0.04%
 0     integrate general  CPU                                   7152       0.04%
 -------------------------------------------------------------------------------

 -------------------------------------------------------------------------------
 -                                                                             -
 -                          OFFLOAD MEMPOOL STATISTICS                         -
 -                                                                             -
 -------------------------------------------------------------------------------
 Memory consumption                Number of allocations  Used [MiB]  Size [MiB]
 Device                                                6          16          16
 Host                                                  6          16          16
 -------------------------------------------------------------------------------

 MEMORY| Estimated peak process memory [MiB]                                 509

 -------------------------------------------------------------------------------
 -                                                                             -
 -                         MESSAGE PASSING PERFORMANCE                         -
 -                                                                             -
 -------------------------------------------------------------------------------

 ROUTINE             CALLS      AVE VOLUME [Bytes]
 MP_Group                4
 MP_Bcast            13385                   3423.
 MP_Allreduce        36721                    460.
 MP_Sync               282
 MP_Alltoall          2130               10785390.
 MP_SendRecv          3360                  57600.
 MP_ISendRecv         3330                  57600.
 MP_Wait             13749
 MP_comm_split         278
 MP_ISend             9060                 246641.
 MP_IRecv             9060                 246672.
 -------------------------------------------------------------------------------


 -------------------------------------------------------------------------------
 -                                                                             -
 -                           R E F E R E N C E S                               -
 -                                                                             -
 -------------------------------------------------------------------------------
 
 CP2K version 2026.1, the CP2K developers group (2026).
 CP2K is freely available from https://www.cp2k.org/ .
 
 T. D. Kuehne, M. Iannuzzi, M. Del Ben, V. V. Rybkin, P. Seewald, F. Stein, T. 
 Laino, R. Z. Khaliullin, O. Schuett, F. Schiffmann, D. Golze, J. Wilhelm, S. 
 Chulkov, M. H. Bani-Hashemian, V. Weber, U. Borstnik, M. Taillefumier, A. S. 
 Jakobovits, A. Lazzaro, H. Pabst, T. Mueller, R. Schade, M. Guidon, S. 
 Andermatt, N. Holmberg, G. K. Schenter, A. Hehn, A. Bussy, F. Belleflamme, G. 
 Tabacchi, A. Gloess, M. Lass, I. Bethune, C. J. Mundy, C. Plessl, M. Watkins, 
 J. VandeVondele, M. Krack, J. Hutter.
 J. Chem. Phys. 152, 194103 (2020).
 CP2K: An electronic structure and molecular dynamics software package - 
 Quickstep: Efficient and accurate electronic structure calculations.
 https://doi.org/10.1063/5.0007045

 L. Goerigk, A. Hansen, C. Bauer, S. Ehrlich, A. Najibi, S. Grimme.
 Phys. Chem. Chem. Phys. 19, 32184-32215 (2017).
 A look at the density functional theory zoo with the advanced GMTKN55 database 
 for general main group thermochemistry, kinetics and noncovalent interactions.
 https://doi.org/10.1039/C7CP04913G

 O. Schuett, P. Messmer, J. Hutter, J. VandeVondele.
 Electronic Structure Calculations on Graphics Processing Units, 173-190 (2016).
 GPU-Accelerated Sparse Matrix-Matrix Multiplication for Linear Scaling Density 
 Functional Theory.
 https://doi.org/10.1002/9781118670712.ch8

 A. Heinecke, G. Henry, M. Hutchinson, H. Pabst.
 Proceedings of Intl. Supercomputing Conference, 981-991 (2016).
 LIBXSMM: Accelerating Small Matrix Multiplications by Runtime Code Generation.
 https://doi.org/10.1109/SC.2016.83

 J. Hutter, M. Iannuzzi, F. Schiffmann, J. VandeVondele.
 WIREs Comput Mol Sci. 4, 15-25 (2014).
 CP2K: atomistic simulations of condensed matter systems.
 https://doi.org/10.1002/wcms.1159

 U. Borstnik, J. VandeVondele, V. Weber, J. Hutter.
 Parallel Comput. 40, 47-58 (2014).
 Sparse matrix multiplication: The distributed block-compressed sparse row 
 library.
 https://doi.org/10.1016/j.parco.2014.03.012

 S. Grimme, S. Ehrlich, L. Goerigk.
 J. Comput. Chem. 32, 1456 (2011).
 Effect of the damping function in dispersion corrected density functional 
 theory.
 https://doi.org/10.1002/jcc.21759

 S. Grimme, J. Antony, S. Ehrlich, H. Krieg.
 J. Chem. Phys. 132, 154104 (2010).
 A consistent and accurate ab initio parametrization of density functional 
 dispersion correction (DFT-D) for the 94 elements H-Pu.
 https://doi.org/10.1063/1.3382344

 J. VandeVondele, J. Hutter.
 J. Chem. Phys. 127, 114105 (2007).
 Gaussian basis sets for accurate calculations on molecular systems in gas and 
 condensed phases.
 https://doi.org/10.1063/1.2770708

 J. VandeVondele, M. Krack, F. Mohamed, M. Parrinello, T. Chassaing, J. Hutter.
 Comput. Phys. Commun. 167, 103-128 (2005).
 QUICKSTEP: Fast and accurate density functional calculations using a mixed 
 Gaussian and plane waves approach.
 https://doi.org/10.1016/j.cpc.2004.12.014

 M. Krack.
 Theor. Chem. Acc. 114, 145-152 (2005).
 Pseudopotentials for H to Kr optimized for gradient-corrected 
 exchange-correlation functionals.
 https://doi.org/10.1007/s00214-005-0655-y

 M. Frigo, S. G. Johnson.
 Proc. IEEE 93, 216-231 (2005).
 The design and implementation of FFTW3.
 https://doi.org/10.1109/JPROC.2004.840301

 J. VandeVondele, J. Hutter.
 J. Chem. Phys. 118, 4365-4369 (2003).
 An efficient orbital transformation method for electronic structure 
 calculations.
 https://doi.org/10.1063/1.1543154

 C. Hartwigsen, S. Goedecker, J. Hutter.
 Phys. Rev. B 58, 3641-3662 (1998).
 Relativistic separable dual-space Gaussian pseudopotentials from H to Rn.
 https://doi.org/10.1103/PhysRevB.58.3641

 G. Lippert, J. Hutter, M. Parrinello.
 Mol. Phys. 92, 477-487 (1997).
 A hybrid Gaussian and plane wave density functional scheme.
 https://doi.org/10.1080/002689797170220

 S. Goedecker, M. Teter, J. Hutter.
 Phys. Rev. B 54, 1703-1710 (1996).
 Separable dual-space Gaussian pseudopotentials.
 https://doi.org/10.1103/PhysRevB.54.1703

 J. P. Perdew, K. Burke, M. Ernzerhof.
 Phys. Rev. Lett. 77, 3865-3868 (1996).
 Generalized gradient approximation made simple.
 https://doi.org/10.1103/PhysRevLett.77.3865


 -------------------------------------------------------------------------------
 -                                                                             -
 -                                T I M I N G                                  -
 -                                                                             -
 -------------------------------------------------------------------------------
 SUBROUTINE                       CALLS  ASD         SELF TIME        TOTAL TIME
                                MAXIMUM       AVERAGE  MAXIMUM  AVERAGE  MAXIMUM
 CP2K                                 1  1.0    0.016    0.021   48.893   48.893
 qs_energies                          1  2.0    0.000    0.000   48.648   48.648
 scf_env_do_scf                       1  3.0    0.000    0.000   41.341   41.341
 scf_env_do_scf_inner_loop          111  4.0    0.002    0.008   40.909   40.912
 qs_ks_update_qs_env                112  5.0    0.001    0.001   23.536   23.597
 rebuild_ks_matrix                  111  6.0    0.000    0.000   23.484   23.545
 qs_ks_build_kohn_sham_matrix       111  7.0    0.012    0.014   23.484   23.545
 fft_wrap_pw1pw2                   1893 10.3    0.028    0.038   15.848   16.348
 fft_wrap_pw1pw2_80                1224 11.7    0.578    0.781   15.054   15.607
 fft3d_ps                          1893 12.3    6.550    8.390   12.383   14.125
 qs_vxc_create                      111  8.0    0.002    0.004   12.918   13.353
 xc_vxc_pw_create                   111  9.0    0.129    0.154   12.916   13.352
 dbcsr_multiply_generic            5587  9.9    0.121    0.132   11.867   12.233
 xc_pw_derive                       666 11.0    0.005    0.007    9.062    9.562
 qs_scf_new_mos                     111  5.0    0.001    0.001    8.716    8.762
 qs_scf_loop_do_ot                  111  6.0    0.001    0.001    8.715    8.761
 qs_rho_update_rho_low              112  5.0    0.000    0.000    8.722    8.735
 calculate_rho_elec                 112  6.0    0.097    0.104    8.722    8.735
 mp_alltoall_z22v                  1893 14.3    4.576    8.702    4.576    8.702
 ot_scf_mini                        111  7.0    0.002    0.002    8.283    8.327
 multiply_cannon                   5587 10.9    0.232    0.248    6.414    7.482
 sum_up_and_integrate               111  8.0    0.002    0.002    7.054    7.083
 scf_post_calculation_gpw             1  3.0    0.000    0.000    7.079    7.079
 write_available_results              1  4.0    0.000    0.000    7.079    7.079
 integrate_v_rspace                 111  9.0    0.003    0.005    7.010    7.039
 write_mo_dependent_results           1  5.0    0.000    0.000    7.020    7.024
 calculate_projected_dos              1  6.0    0.010    0.015    6.976    6.980
 density_rs2pw                      112  7.0    0.004    0.005    5.045    6.894
 xc_rho_set_and_dset_create         111 10.0    0.095    0.135    6.588    6.841
 ot_eigensolver                       1  7.0    0.002    0.003    6.428    6.429
 xc_pw_divergence                   111 10.0    0.002    0.004    5.894    6.194
 multiply_cannon_loop              5587 11.9    0.083    0.092    4.940    5.679
 ot_mini                            348  8.0    0.001    0.001    5.365    5.415
 qs_ot_get_p                        355  8.0    0.002    0.002    4.608    4.862
 yz_to_x                            893 12.9    0.493    0.648    2.738    4.860
 mp_waitall_1                    272865 14.2    3.147    4.643    3.147    4.643
 x_to_yz                           1000 13.7    0.732    0.992    3.063    4.567
 grid_collocate_task_list           112  7.0    3.131    4.256    3.131    4.256
 multiply_cannon_multrec          22348 12.9    2.345    4.208    2.358    4.224
 qs_ot_get_derivative               230  9.0    0.002    0.002    4.062    4.105
 grid_integrate_task_list           111 10.0    2.774    4.020    2.774    4.020
 make_m2s                         11174 10.9    0.065    0.074    3.706    3.995
 transfer_rs2pw                     452  8.0    0.004    0.005    1.980    3.635
 mp_waitany                        9060 11.5    1.817    3.471    1.817    3.471
 cp_fm_syevd                        278 10.9    0.001    0.001    3.364    3.371
 make_images                      11174 11.9    0.658    1.115    3.060    3.357
 qs_ot_p2m_diag                     269  9.0    0.026    0.046    3.325    3.354
 cp_fm_redistribute_end             278 11.9    1.653    3.239    1.667    3.256
 transfer_rs2pw_80                  116  9.0    0.177    0.216    1.535    3.195
 mp_alltoall_d11v                  4165 12.7    1.467    3.189    1.467    3.189
 cp_fm_syevd_base                   278 11.9    1.586    3.176    1.586    3.176
 rs_gather_matrices                 111 10.0    0.045    0.057    1.324    3.053
 cp_dbcsr_syevd                     269 10.0    0.011    0.012    2.933    2.940
 potential_pw2rs                    111 10.0    0.014    0.018    2.908    2.922
 qs_ot_get_derivative_diag          184 10.0    0.004    0.005    2.470    2.516
 multiply_cannon_metrocomm3       22348 12.9    0.026    0.027    1.478    2.332
 pw_gather_p                        893 11.9    1.559    2.149    1.559    2.149
 mp_sum_d                         10228 11.0    1.093    2.147    1.093    2.147
 xc_functional_eval                 111 11.0    0.001    0.002    1.856    2.114
 pbe_lda_eval                       111 12.0    1.855    2.112    1.855    2.112
 make_images_data                 11174 12.9    0.053    0.063    1.262    1.796
 mp_sum_l                         26505 11.0    0.928    1.535    0.928    1.535
 hybrid_alltoall_any              11528 13.9    0.136    0.587    1.048    1.464
 mp_irecv_dv                      51092 13.7    0.503    1.357    0.503    1.357
 mp_allgather_i34                  5587 11.9    0.688    1.346    0.688    1.346
 transfer_pw2rs                     447 11.0    0.003    0.004    1.251    1.262
 ot_diis_step                       111  9.0    0.003    0.003    1.224    1.224
 multiply_cannon_metrocomm4       16761 12.9    0.024    0.024    0.429    1.221
 pw_poisson_solve                   111  8.0    0.002    0.002    1.175    1.193
 apply_preconditioner_dbcsr         112 10.0    0.000    0.000    0.957    1.027
 apply_single                       112 11.0    0.000    0.000    0.957    1.027
 pw_scatter_p                      1000 12.7    0.898    1.017    0.898    1.017
 -------------------------------------------------------------------------------

 The number of warnings for this run is : 0
 
 -------------------------------------------------------------------------------
  **** **** ******  **  PROGRAM ENDED AT                 2026-06-19 15:59:35.798
 ***** ** ***  *** **   PROGRAM RAN ON              ip-172-31-81-15.ec2.internal
 **    ****   ******    PROGRAM RAN BY                                 <unknown>
 ***** **    ** ** **   PROGRAM PROCESS ID                                  5748
  **** **  *******  **  PROGRAM STOPPED IN /opt/cp2k_i2/cp2k_adsorption_heteroge
                                           neity
