 DBCSR| CPU Multiplication driver                                           BLAS (U)
 DBCSR| Multrec recursion limit                                              512 (U)
 DBCSR| Multiplication stack size                                           1000 (D)
 DBCSR| Maximum elements for images                                    UNLIMITED (U)
 DBCSR| Multiplicative factor virtual images                                   1 (U)
 DBCSR| Use multiplication densification                                       T (D)
 DBCSR| Multiplication size stacks                                             3 (U)
 DBCSR| Use memory pool for CPU allocation                                     F (U)
 DBCSR| Number of 3D layers                                               SINGLE (U)
 DBCSR| Use MPI memory allocation                                              F (U)
 DBCSR| Use RMA algorithm                                                      F (U)
 DBCSR| Use Communication thread                                               T (U)
 DBCSR| Communication thread load                                             83 (D)
 DBCSR| MPI: My process id                                                     0
 DBCSR| MPI: Number of processes                                              16
 DBCSR| OMP: Current number of threads                                         2
 DBCSR| OMP: Max number of threads                                             2
 DBCSR| Split modifier for TAS multiplication algorithm                  1.0E+00 (U)


  **** **** ******  **  PROGRAM STARTED AT               2026-06-19 18:09:41.547
 ***** ** ***  *** **   PROGRAM STARTED ON         ip-172-31-89-158.ec2.internal
 **    ****   ******    PROGRAM STARTED BY                             <unknown>
 ***** **    ** ** **   PROGRAM PROCESS ID                                  5264
  **** **  *******  **  PROGRAM STARTED IN /opt/cp2k_sanity/cp2k_adsorption_hete
                                           rogeneity

 CP2K| version string:                                       CP2K version 2026.1
 CP2K| source code revision number:                                      aceff1c
 CP2K| cp2kflags: omp libint fftw3 libxc parallel scalapack mpi_f08 cosma xsmm p
 CP2K|            lumed2 spglib sirius libtorch hdf5 trexio
 CP2K| is freely available from                            https://www.cp2k.org/
 CP2K| Program compiled at                                   2026-06-16 16:35:48
 CP2K| Program compiled on                                                      
 CP2K| Program compiled for                                               x86_64
 CP2K| Data directory path                  /opt/cp2k_sanity/env/share/cp2k/data
 CP2K| Input file name        cp2k_inputs/sanity/geo_opt/carbonyl_sanity_end_on_

 GLOBAL| Force Environment number                                              1
 GLOBAL| Basis set file name            /opt/cp2k_sanity/env/share/cp2k/data/BAS
 GLOBAL| Potential file name            /opt/cp2k_sanity/env/share/cp2k/data/GTH
 GLOBAL| MM Potential file name                                     MM_POTENTIAL
 GLOBAL| Coordinate file name                                      __STD_INPUT__
 GLOBAL| Method name                                                        CP2K
 GLOBAL| Project name                   carbonyl_sanity_end_on_O_vertical_geo_op
 GLOBAL| Run type                                                        GEO_OPT
 GLOBAL| FFT library                                                       FFTW3
 GLOBAL| Diagonalization library                                       ScaLAPACK
 GLOBAL| Cholesky decomposition library                                ScaLAPACK
 GLOBAL| DGEMM library                                                      BLAS
 GLOBAL| Orthonormality check for eigenvectors                          DISABLED
 GLOBAL| Matrix multiplication library                                     COSMA
 GLOBAL| All-to-all communication in single precision                          F
 GLOBAL| FFTs using library dependent lengths                                  F
 GLOBAL| Grid backend                                                       AUTO
 GLOBAL| Global print level                                                  LOW
 GLOBAL| MPI I/O enabled                                                       T
 GLOBAL| Total number of message passing processes                            16
 GLOBAL| Number of distributed systems (nodes)                                 1
 GLOBAL| Number of threads for this process                                    2
 GLOBAL| This output is from process                                           0
 GLOBAL| OpenMP stack size per thread (OMP_STACKSIZE)                    default
 GLOBAL| CPU model name                                            AMD EPYC 9R14
 GLOBAL| CPUID                                                              1003
 GLOBAL| Compiled for CPUID                                                 1002

 *** HINT in environment.F:960 :: The compiler target flags (x86_avx2)     ***
 *** used to build this binary cannot exploit all extensions of this CPU   ***
 *** model (x86_avx512). Consider compiler target flags as part of FCFLAGS ***
 *** and CFLAGS (ARCH file).                                               ***


 MEMORY| system memory details [Kb]
 MEMORY|                        rank 0           min           max       average
 MEMORY| MemTotal             64430560      64430560      64430560      64430560
 MEMORY| MemFree              56541188      56541188      56541188      56541188
 MEMORY| Buffers                  3172          3172          3172          3172
 MEMORY| Cached                4434868       4434868       4434868       4434868
 MEMORY| Slab                   251464        251464        251464        251464
 MEMORY| SReclaimable           117248        117248        117248        117248
 MEMORY| MemLikelyFree        61096476      61096476      61096476      61096476


 GENERATE|  Preliminary Number of Bonds generated:                             0
 GENERATE|  Achieved consistency in connectivity generation.

 *******************************************************************************
 *******************************************************************************
 **                                                                           **
 **     #####                         ##              ##                      **
 **    ##   ##            ##          ##              ##                      **
 **   ##     ##                       ##            ######                    **
 **   ##     ##  ##   ##  ##   #####  ##  ##   ####   ##    #####    #####    **
 **   ##     ##  ##   ##  ##  ##      ## ##   ##      ##   ##   ##  ##   ##   **
 **   ##  ## ##  ##   ##  ##  ##      ####     ###    ##   ######   ######    **
 **    ##  ###   ##   ##  ##  ##      ## ##      ##   ##   ##       ##        **
 **     #######   #####   ##   #####  ##  ##  ####    ##    #####   ##        **
 **           ##                                                    ##        **
 **                                                                           **
 **                                                ... make the atoms dance   **
 **                                                                           **
 **            Copyright (C) by CP2K developers group (2000-2026)             **
 **                      J. Chem. Phys. 152, 194103 (2020)                    **
 **                                                                           **
 *******************************************************************************


 TOTAL NUMBERS AND MAXIMUM NUMBERS

  Total number of            - Atomic kinds:                                   4
                             - Atoms:                                        146
                             - Shell sets:                                   146
                             - Shells:                                       700
                             - Primitive Cartesian functions:                730
                             - Cartesian basis functions:                   1909
                             - Spherical basis functions:                   1778

  Maximum angular momentum of- Orbital basis functions:                        2
                             - Local part of the GTH pseudopotential:          2
                             - Non-local part of the GTH pseudopotential:      4


 SCF PARAMETERS         Density guess:                                    ATOMIC
                        --------------------------------------------------------
                        max_scf:                                             260
                        max_scf_history:                                       0
                        max_diis:                                              4
                        --------------------------------------------------------
                        eps_scf:                                        1.00E-05
                        eps_scf_history:                                0.00E+00
                        eps_diis:                                       0.00E+00
                        eps_eigval:                                     1.00E-05
                        --------------------------------------------------------
                        level_shift [a.u.]:                             0.000000
                        --------------------------------------------------------
                        Outer loop SCF in use 
                        No variables optimised in outer loop
                        eps_scf                                         1.00E-05
                        max_scf                                               10
                        No outer loop optimization
                        step_size                                       5.00E-01

 BFGS| Use rational function optimization for step estimation:                NO
 BFGS| Use model Hessian for initial guess:                                  YES
 BFGS| Restart Hessian:                                                       NO
 BFGS| Trust radius:                                                       0.472

 *******************************************************************************
 ***                     STARTING GEOMETRY OPTIMIZATION                      ***
 ***                                   BFGS                                  ***
 *******************************************************************************

 Extrapolation method: initial_guess

 Spin 1

 Number of electrons:                                                        274
 Number of occupied orbitals:                                                274
 Number of molecular orbitals:                                               274

 Spin 2

 Number of electrons:                                                        273
 Number of occupied orbitals:                                                273
 Number of molecular orbitals:                                               273

 Number of orbital functions:                                               1778
 Number of independent orbital functions:                                   1778


 SCF WAVEFUNCTION OPTIMIZATION

  ----------------------------------- OT ---------------------------------------
  Minimizer      : DIIS                : direct inversion
                                         in the iterative subspace
                                         using   7 DIIS vectors
                                         safer DIIS on
  Preconditioner : FULL_SINGLE_INVERSE : inversion of 
                                         H + eS - 2*(Sc)(c^T*H*c+const)(Sc)^T
  Precond_solver : DEFAULT
  stepsize       :    0.08000000                  energy_gap     :    0.08000000
  eps_taylor     :   0.10000E-15                  max_taylor     :             4
  ----------------------------------- OT ---------------------------------------

  Step     Update method      Time    Convergence         Total energy    Change
  ------------------------------------------------------------------------------
     1 OT DIIS     0.80E-01    1.3     0.01411030      -725.4625913661 -7.25E+02
     2 OT DIIS     0.80E-01    1.0     0.01254528      -736.9813772845 -1.15E+01
     3 OT DIIS     0.80E-01    1.0     0.01053420      -743.1567327662 -6.18E+00
     4 OT DIIS     0.80E-01    1.0     0.00869822      -754.0191009458 -1.09E+01
     5 OT DIIS     0.80E-01    1.0     0.00545877      -766.0842947917 -1.21E+01
     6 OT DIIS     0.80E-01    1.0     0.00429224      -769.1862872463 -3.10E+00
     7 OT DIIS     0.80E-01    1.0     0.00261502      -772.9501409176 -3.76E+00
     8 OT DIIS     0.80E-01    1.0     0.00211496      -773.8589621274 -9.09E-01
     9 OT DIIS     0.80E-01    1.1     0.00148323      -774.9838188257 -1.12E+00
    10 OT DIIS     0.80E-01    1.1     0.00124785      -775.3582259744 -3.74E-01
    11 OT DIIS     0.80E-01    1.1     0.00097129      -775.8136112320 -4.55E-01
    12 OT DIIS     0.80E-01    1.1     0.00081184      -776.0330762948 -2.19E-01
    13 OT DIIS     0.80E-01    1.1     0.00065908      -776.2570644749 -2.24E-01
    14 OT DIIS     0.80E-01    1.1     0.00054586      -776.3840519843 -1.27E-01
    15 OT DIIS     0.80E-01    1.1     0.00044845      -776.5145508197 -1.30E-01
    16 OT DIIS     0.80E-01    1.1     0.00037494      -776.5871671879 -7.26E-02
    17 OT DIIS     0.80E-01    1.1     0.00033337      -776.6424239191 -5.53E-02
    18 OT DIIS     0.80E-01    1.1     0.00029118      -776.6835075478 -4.11E-02
    19 OT DIIS     0.80E-01    1.1     0.00026837      -776.7192304883 -3.57E-02
    20 OT DIIS     0.80E-01    1.1     0.00023414      -776.7432677636 -2.40E-02
    21 OT DIIS     0.80E-01    1.1     0.00020279      -776.7804802695 -3.72E-02
    22 OT DIIS     0.80E-01    1.1     0.00018717      -776.7974752809 -1.70E-02
    23 OT DIIS     0.80E-01    1.0     0.00017395      -776.8245092225 -2.70E-02
    24 OT DIIS     0.80E-01    1.1     0.00015633      -776.8338871225 -9.38E-03
    25 OT DIIS     0.80E-01    1.1     0.00014750      -776.8526413226 -1.88E-02
    26 OT DIIS     0.80E-01    1.1     0.00014713      -776.8534854224 -8.44E-04
    27 OT DIIS     0.80E-01    1.1     0.00013517      -776.8590687487 -5.58E-03
    28 OT DIIS     0.80E-01    1.1     0.00012094      -776.8738589141 -1.48E-02
    29 OT DIIS     0.80E-01    1.1     0.00011073      -776.8840995192 -1.02E-02
    30 OT DIIS     0.80E-01    1.1     0.00010654      -776.8917678747 -7.67E-03
    31 OT DIIS     0.80E-01    1.1     0.00009293      -776.9007557983 -8.99E-03
    32 OT DIIS     0.80E-01    1.1     0.00009745      -776.9023823475 -1.63E-03
    33 OT DIIS     0.80E-01    1.1     0.00008398      -776.9101989627 -7.82E-03
    34 OT DIIS     0.80E-01    1.0     0.00007304      -776.9150169620 -4.82E-03
    35 OT DIIS     0.80E-01    1.0     0.00006883      -776.9188554580 -3.84E-03
    36 OT DIIS     0.80E-01    1.0     0.00006323      -776.9230362004 -4.18E-03
    37 OT DIIS     0.80E-01    1.0     0.00005938      -776.9264853514 -3.45E-03
    38 OT DIIS     0.80E-01    1.0     0.00005663      -776.9285530405 -2.07E-03
    39 OT DIIS     0.80E-01    1.0     0.00005415      -776.9306903084 -2.14E-03
    40 OT DIIS     0.80E-01    1.0     0.00005357      -776.9317990200 -1.11E-03
    41 OT DIIS     0.80E-01    1.0     0.00004498      -776.9360410946 -4.24E-03
    42 OT DIIS     0.80E-01    1.1     0.00004667      -776.9376285940 -1.59E-03
    43 OT DIIS     0.80E-01    1.1     0.00003954      -776.9389667700 -1.34E-03
    44 OT SD       0.80E-01    1.1     0.00004131      -776.9393628412 -3.96E-04
    45 OT DIIS     0.80E-01    1.1     0.00003933      -776.9394920008 -1.29E-04
    46 OT DIIS     0.80E-01    1.1     0.00003567      -776.9408647979 -1.37E-03
    47 OT DIIS     0.80E-01    1.1     0.00003417      -776.9416940004 -8.29E-04
    48 OT DIIS     0.80E-01    1.1     0.00003111      -776.9433699164 -1.68E-03
    49 OT DIIS     0.80E-01    1.0     0.00002958      -776.9445800472 -1.21E-03
    50 OT DIIS     0.80E-01    1.1     0.00002833      -776.9454631588 -8.83E-04
    51 OT SD       0.80E-01    1.1     0.00002784      -776.9464999171 -1.04E-03
    52 OT DIIS     0.80E-01    1.1     0.00002693      -776.9465590658 -5.91E-05
    53 OT DIIS     0.80E-01    1.1     0.00002661      -776.9475924397 -1.03E-03
    54 OT DIIS     0.80E-01    1.1     0.00002374      -776.9479862031 -3.94E-04
    55 OT DIIS     0.80E-01    1.1     0.00002345      -776.9485651438 -5.79E-04
    56 OT DIIS     0.80E-01    1.1     0.00002208      -776.9489746194 -4.09E-04
    57 OT DIIS     0.80E-01    1.1     0.00002196      -776.9496719971 -6.97E-04
    58 OT DIIS     0.80E-01    1.1     0.00002072      -776.9501707892 -4.99E-04
    59 OT DIIS     0.80E-01    1.0     0.00002354      -776.9507088292 -5.38E-04
    60 OT DIIS     0.80E-01    1.1     0.00002126      -776.9510540110 -3.45E-04
    61 OT DIIS     0.80E-01    1.0     0.00001983      -776.9512072090 -1.53E-04
    62 OT DIIS     0.80E-01    1.0     0.00001932      -776.9513693551 -1.62E-04
    63 OT DIIS     0.80E-01    1.1     0.00001870      -776.9518813833 -5.12E-04
    64 OT DIIS     0.80E-01    1.0     0.00001838      -776.9523269296 -4.46E-04
    65 OT SD       0.80E-01    1.0     0.00001898      -776.9525892337 -2.62E-04
    66 OT DIIS     0.80E-01    1.0     0.00001838      -776.9526167132 -2.75E-05
    67 OT DIIS     0.80E-01    1.0     0.00001786      -776.9527656304 -1.49E-04
    68 OT DIIS     0.80E-01    1.0     0.00001765      -776.9530795121 -3.14E-04
    69 OT DIIS     0.80E-01    1.0     0.00001753      -776.9533195642 -2.40E-04
    70 OT DIIS     0.80E-01    1.0     0.00001744      -776.9535290259 -2.09E-04
    71 OT DIIS     0.80E-01    1.0     0.00001737      -776.9536968616 -1.68E-04
    72 OT SD       0.80E-01    1.0     0.00001732      -776.9541030870 -4.06E-04
    73 OT DIIS     0.80E-01    1.0     0.00001730      -776.9541264088 -2.33E-05
    74 OT DIIS     0.80E-01    1.0     0.00001728      -776.9543023543 -1.76E-04
    75 OT DIIS     0.80E-01    1.0     0.00001729      -776.9543614174 -5.91E-05
    76 OT SD       0.80E-01    1.0     0.00001729      -776.9543741392 -1.27E-05
    77 OT SD       0.80E-01    1.0     0.00001729      -776.9543973879 -2.32E-05
    78 OT SD       0.80E-01    1.0     0.00001729      -776.9544206365 -2.32E-05
    79 OT SD       0.80E-01    1.0     0.00001729      -776.9544438899 -2.33E-05
    80 OT SD       0.80E-01    1.0     0.00001729      -776.9544671506 -2.33E-05
    81 OT SD       0.80E-01    1.0     0.00001730      -776.9544904198 -2.33E-05
    82 OT SD       0.80E-01    1.0     0.00001730      -776.9545136988 -2.33E-05
    83 OT SD       0.80E-01    1.0     0.00001730      -776.9545369886 -2.33E-05
    84 OT SD       0.80E-01    1.0     0.00001731      -776.9545602901 -2.33E-05
    85 OT SD       0.80E-01    1.0     0.00001731      -776.9545836040 -2.33E-05
    86 OT SD       0.80E-01    1.0     0.00001732      -776.9546069311 -2.33E-05
    87 OT SD       0.80E-01    1.0     0.00001732      -776.9546302722 -2.33E-05
    88 OT SD       0.80E-01    1.0     0.00001733      -776.9546536279 -2.34E-05
    89 OT SD       0.80E-01    1.0     0.00001734      -776.9546769989 -2.34E-05
    90 OT SD       0.80E-01    1.0     0.00001734      -776.9547003858 -2.34E-05
    91 OT SD       0.80E-01    1.0     0.00001735      -776.9547237891 -2.34E-05
    92 OT SD       0.80E-01    1.0     0.00001735      -776.9547472095 -2.34E-05
    93 OT SD       0.80E-01    1.0     0.00001736      -776.9547706475 -2.34E-05
    94 OT SD       0.80E-01    1.0     0.00001737      -776.9547941037 -2.35E-05
    95 OT SD       0.80E-01    1.0     0.00001738      -776.9548175785 -2.35E-05
    96 OT SD       0.80E-01    1.0     0.00001738      -776.9548410724 -2.35E-05
    97 OT SD       0.80E-01    1.0     0.00001739      -776.9548645861 -2.35E-05
    98 OT SD       0.80E-01    1.0     0.00001740      -776.9548881198 -2.35E-05
    99 OT SD       0.80E-01    1.0     0.00001741      -776.9549116742 -2.36E-05
   100 OT SD       0.80E-01    1.0     0.00001741      -776.9549352497 -2.36E-05
   101 OT SD       0.80E-01    1.0     0.00001742      -776.9549588466 -2.36E-05
   102 OT SD       0.80E-01    1.0     0.00001743      -776.9549824656 -2.36E-05
   103 OT SD       0.80E-01    1.0     0.00001744      -776.9550061069 -2.36E-05
   104 OT SD       0.80E-01    1.0     0.00001745      -776.9550297711 -2.37E-05
   105 OT SD       0.80E-01    1.0     0.00001745      -776.9550534585 -2.37E-05
   106 OT SD       0.80E-01    1.0     0.00001746      -776.9550771695 -2.37E-05
   107 OT SD       0.80E-01    1.0     0.00001747      -776.9551009047 -2.37E-05
   108 OT SD       0.80E-01    1.0     0.00001748      -776.9551246642 -2.38E-05
   109 OT SD       0.80E-01    1.0     0.00001749      -776.9551484486 -2.38E-05
   110 OT SD       0.80E-01    1.0     0.00001750      -776.9551722583 -2.38E-05
   111 OT SD       0.80E-01    1.0     0.00001751      -776.9551960936 -2.38E-05
   112 OT SD       0.80E-01    1.0     0.00001752      -776.9552199548 -2.39E-05
   113 OT SD       0.80E-01    1.0     0.00001753      -776.9552438425 -2.39E-05
   114 OT SD       0.80E-01    1.0     0.00001754      -776.9552677568 -2.39E-05
   115 OT SD       0.80E-01    1.0     0.00001755      -776.9552916983 -2.39E-05
   116 OT SD       0.80E-01    1.0     0.00001756      -776.9553156672 -2.40E-05
   117 OT SD       0.80E-01    1.0     0.00001757      -776.9553396639 -2.40E-05
   118 OT SD       0.80E-01    1.0     0.00001758      -776.9553636887 -2.40E-05
   119 OT SD       0.80E-01    1.0     0.00001759      -776.9553877421 -2.41E-05
   120 OT SD       0.80E-01    1.0     0.00001760      -776.9554118243 -2.41E-05
   121 OT SD       0.80E-01    1.0     0.00001761      -776.9554359357 -2.41E-05
   122 OT SD       0.80E-01    1.0     0.00001762      -776.9554600765 -2.41E-05
   123 OT SD       0.80E-01    1.0     0.00001763      -776.9554842473 -2.42E-05
   124 OT SD       0.80E-01    1.0     0.00001764      -776.9555084481 -2.42E-05
   125 OT SD       0.80E-01    1.0     0.00001766      -776.9555326795 -2.42E-05
   126 OT SD       0.80E-01    1.0     0.00001767      -776.9555569417 -2.43E-05
   127 OT SD       0.80E-01    1.0     0.00001768      -776.9555812350 -2.43E-05
   128 OT SD       0.80E-01    1.0     0.00001769      -776.9556055597 -2.43E-05
   129 OT SD       0.80E-01    1.0     0.00001770      -776.9556299162 -2.44E-05
   130 OT SD       0.80E-01    1.0     0.00001771      -776.9556543047 -2.44E-05
   131 OT SD       0.80E-01    1.0     0.00001773      -776.9556787255 -2.44E-05
   132 OT SD       0.80E-01    1.0     0.00001774      -776.9557031791 -2.45E-05
   133 OT SD       0.80E-01    1.0     0.00001775      -776.9557276656 -2.45E-05
   134 OT SD       0.80E-01    1.0     0.00001776      -776.9557521853 -2.45E-05
   135 OT SD       0.80E-01    1.0     0.00001777      -776.9557767386 -2.46E-05
   136 OT SD       0.80E-01    1.0     0.00001779      -776.9558013257 -2.46E-05
   137 OT SD       0.80E-01    1.0     0.00001780      -776.9558259469 -2.46E-05
   138 OT SD       0.80E-01    1.0     0.00001781      -776.9558506025 -2.47E-05
   139 OT SD       0.80E-01    1.0     0.00001782      -776.9558752927 -2.47E-05
   140 OT SD       0.80E-01    1.0     0.00001784      -776.9559000180 -2.47E-05
   141 OT SD       0.80E-01    1.0     0.00001785      -776.9559247784 -2.48E-05
   142 OT SD       0.80E-01    1.0     0.00001786      -776.9559495744 -2.48E-05
   143 OT SD       0.80E-01    1.0     0.00001787      -776.9559744062 -2.48E-05
   144 OT SD       0.80E-01    1.0     0.00001789      -776.9559992739 -2.49E-05
   145 OT SD       0.80E-01    1.0     0.00001790      -776.9560241780 -2.49E-05
   146 OT SD       0.80E-01    1.0     0.00001791      -776.9560491187 -2.49E-05
   147 OT SD       0.80E-01    1.0     0.00001793      -776.9560740962 -2.50E-05
   148 OT SD       0.80E-01    1.0     0.00001794      -776.9560991107 -2.50E-05
   149 OT SD       0.80E-01    1.0     0.00001795      -776.9561241626 -2.51E-05
   150 OT SD       0.80E-01    1.0     0.00001797      -776.9561492521 -2.51E-05
   151 OT SD       0.80E-01    1.0     0.00001798      -776.9561743795 -2.51E-05
   152 OT SD       0.80E-01    1.0     0.00001799      -776.9561995449 -2.52E-05
   153 OT SD       0.80E-01    1.0     0.00001801      -776.9562247487 -2.52E-05
   154 OT SD       0.80E-01    1.0     0.00001802      -776.9562499910 -2.52E-05
   155 OT SD       0.80E-01    1.0     0.00001804      -776.9562752722 -2.53E-05
   156 OT SD       0.80E-01    1.0     0.00001805      -776.9563005924 -2.53E-05
   157 OT SD       0.80E-01    1.0     0.00001806      -776.9563259519 -2.54E-05
   158 OT SD       0.80E-01    1.0     0.00001808      -776.9563513509 -2.54E-05
   159 OT SD       0.80E-01    1.0     0.00001809      -776.9563767897 -2.54E-05
   160 OT SD       0.80E-01    1.0     0.00001811      -776.9564022684 -2.55E-05
   161 OT SD       0.80E-01    1.0     0.00001812      -776.9564277874 -2.55E-05
   162 OT SD       0.80E-01    1.0     0.00001814      -776.9564533468 -2.56E-05
   163 OT SD       0.80E-01    1.0     0.00001815      -776.9564789469 -2.56E-05
   164 OT SD       0.80E-01    1.0     0.00001816      -776.9565045878 -2.56E-05
   165 OT SD       0.80E-01    1.0     0.00001818      -776.9565302698 -2.57E-05
   166 OT SD       0.80E-01    1.0     0.00001819      -776.9565559932 -2.57E-05
   167 OT SD       0.80E-01    1.0     0.00001821      -776.9565817580 -2.58E-05
   168 OT SD       0.80E-01    1.0     0.00001822      -776.9566075646 -2.58E-05
   169 OT SD       0.80E-01    1.0     0.00001824      -776.9566334131 -2.58E-05
   170 OT SD       0.80E-01    1.0     0.00001825      -776.9566593038 -2.59E-05
   171 OT SD       0.80E-01    1.1     0.00001827      -776.9566852368 -2.59E-05
   172 OT SD       0.80E-01    1.1     0.00001828      -776.9567112123 -2.60E-05
   173 OT SD       0.80E-01    1.0     0.00001830      -776.9567372306 -2.60E-05
   174 OT SD       0.80E-01    1.1     0.00001831      -776.9567632918 -2.61E-05
   175 OT SD       0.80E-01    1.0     0.00001833      -776.9567893962 -2.61E-05
   176 OT SD       0.80E-01    1.0     0.00001834      -776.9568155439 -2.61E-05
   177 OT SD       0.80E-01    1.1     0.00001836      -776.9568417351 -2.62E-05
   178 OT SD       0.80E-01    1.1     0.00001837      -776.9568679700 -2.62E-05
   179 OT SD       0.80E-01    1.0     0.00001839      -776.9568942488 -2.63E-05
   180 OT SD       0.80E-01    1.0     0.00001840      -776.9569205716 -2.63E-05
   181 OT SD       0.80E-01    1.0     0.00001842      -776.9569469387 -2.64E-05
   182 OT SD       0.80E-01    1.0     0.00001844      -776.9569733502 -2.64E-05
   183 OT SD       0.80E-01    1.0     0.00001845      -776.9569998064 -2.65E-05
   184 OT SD       0.80E-01    1.1     0.00001847      -776.9570263073 -2.65E-05
   185 OT SD       0.80E-01    1.1     0.00001848      -776.9570528531 -2.65E-05
   186 OT SD       0.80E-01    1.1     0.00001850      -776.9570794441 -2.66E-05
   187 OT SD       0.80E-01    1.0     0.00001851      -776.9571060804 -2.66E-05
   188 OT SD       0.80E-01    1.1     0.00001853      -776.9571327620 -2.67E-05
   189 OT SD       0.80E-01    1.0     0.00001855      -776.9571594893 -2.67E-05
   190 OT SD       0.80E-01    1.0     0.00001856      -776.9571862624 -2.68E-05
   191 OT SD       0.80E-01    1.0     0.00001858      -776.9572130814 -2.68E-05
   192 OT SD       0.80E-01    1.0     0.00001859      -776.9572399464 -2.69E-05
   193 OT SD       0.80E-01    1.0     0.00001861      -776.9572668577 -2.69E-05
   194 OT SD       0.80E-01    1.0     0.00001863      -776.9572938154 -2.70E-05
   195 OT SD       0.80E-01    1.0     0.00001864      -776.9573208195 -2.70E-05
   196 OT SD       0.80E-01    1.0     0.00001866      -776.9573478704 -2.71E-05
   197 OT SD       0.80E-01    1.0     0.00001867      -776.9573749680 -2.71E-05
   198 OT SD       0.80E-01    1.0     0.00001869      -776.9574021126 -2.71E-05
   199 OT SD       0.80E-01    1.0     0.00001871      -776.9574293043 -2.72E-05
   200 OT SD       0.80E-01    1.0     0.00001872      -776.9574565433 -2.72E-05
   201 OT SD       0.80E-01    1.0     0.00001874      -776.9574838295 -2.73E-05
   202 OT SD       0.80E-01    1.0     0.00001876      -776.9575111633 -2.73E-05
   203 OT SD       0.80E-01    1.0     0.00001877      -776.9575385447 -2.74E-05
   204 OT SD       0.80E-01    1.0     0.00001879      -776.9575659739 -2.74E-05
   205 OT SD       0.80E-01    1.0     0.00001880      -776.9575934509 -2.75E-05
   206 OT SD       0.80E-01    1.0     0.00001882      -776.9576209759 -2.75E-05
   207 OT SD       0.80E-01    1.0     0.00001884      -776.9576485490 -2.76E-05
   208 OT SD       0.80E-01    1.0     0.00001885      -776.9576761703 -2.76E-05
   209 OT SD       0.80E-01    1.0     0.00001887      -776.9577038400 -2.77E-05
   210 OT SD       0.80E-01    1.0     0.00001889      -776.9577315581 -2.77E-05
   211 OT SD       0.80E-01    1.0     0.00001890      -776.9577593248 -2.78E-05
   212 OT SD       0.80E-01    1.0     0.00001892      -776.9577871401 -2.78E-05
   213 OT SD       0.80E-01    1.0     0.00001894      -776.9578150042 -2.79E-05
   214 OT SD       0.80E-01    1.0     0.00001895      -776.9578429172 -2.79E-05
   215 OT SD       0.80E-01    1.0     0.00001897      -776.9578708792 -2.80E-05
   216 OT SD       0.80E-01    1.0     0.00001899      -776.9578988902 -2.80E-05
   217 OT SD       0.80E-01    1.0     0.00001900      -776.9579269503 -2.81E-05
   218 OT SD       0.80E-01    1.0     0.00001902      -776.9579550598 -2.81E-05
   219 OT SD       0.80E-01    1.0     0.00001904      -776.9579832185 -2.82E-05
   220 OT SD       0.80E-01    1.0     0.00001905      -776.9580114267 -2.82E-05
   221 OT SD       0.80E-01    1.0     0.00001907      -776.9580396844 -2.83E-05
   222 OT SD       0.80E-01    1.0     0.00001909      -776.9580679916 -2.83E-05
   223 OT SD       0.80E-01    1.0     0.00001910      -776.9580963485 -2.84E-05
   224 OT SD       0.80E-01    1.0     0.00001912      -776.9581247552 -2.84E-05
   225 OT SD       0.80E-01    1.0     0.00001914      -776.9581532117 -2.85E-05
   226 OT SD       0.80E-01    1.0     0.00001915      -776.9581817180 -2.85E-05
   227 OT SD       0.80E-01    1.0     0.00001917      -776.9582102743 -2.86E-05
   228 OT SD       0.80E-01    1.0     0.00001919      -776.9582388805 -2.86E-05
   229 OT SD       0.80E-01    1.0     0.00001920      -776.9582675369 -2.87E-05
   230 OT SD       0.80E-01    1.0     0.00001922      -776.9582962433 -2.87E-05
   231 OT SD       0.80E-01    1.0     0.00001924      -776.9583250000 -2.88E-05
   232 OT SD       0.80E-01    1.0     0.00001925      -776.9583538068 -2.88E-05
   233 OT SD       0.80E-01    1.0     0.00001927      -776.9583826640 -2.89E-05
   234 OT SD       0.80E-01    1.0     0.00001929      -776.9584115715 -2.89E-05
   235 OT SD       0.80E-01    1.0     0.00001930      -776.9584405293 -2.90E-05
   236 OT SD       0.80E-01    1.0     0.00001932      -776.9584695376 -2.90E-05
   237 OT SD       0.80E-01    1.0     0.00001934      -776.9584985963 -2.91E-05
   238 OT SD       0.80E-01    1.0     0.00001936      -776.9585277055 -2.91E-05
   239 OT SD       0.80E-01    1.0     0.00001937      -776.9585568653 -2.92E-05
   240 OT SD       0.80E-01    1.0     0.00001939      -776.9585860756 -2.92E-05
   241 OT SD       0.80E-01    1.0     0.00001941      -776.9586153365 -2.93E-05
   242 OT SD       0.80E-01    1.0     0.00001942      -776.9586446481 -2.93E-05
   243 OT SD       0.80E-01    1.0     0.00001944      -776.9586740102 -2.94E-05
   244 OT SD       0.80E-01    1.0     0.00001946      -776.9587034231 -2.94E-05
   245 OT SD       0.80E-01    1.0     0.00001947      -776.9587328866 -2.95E-05
   246 OT SD       0.80E-01    1.0     0.00001949      -776.9587624008 -2.95E-05
   247 OT SD       0.80E-01    1.0     0.00001951      -776.9587919657 -2.96E-05
   248 OT SD       0.80E-01    1.0     0.00001952      -776.9588215814 -2.96E-05
   249 OT SD       0.80E-01    1.0     0.00001954      -776.9588512477 -2.97E-05
   250 OT SD       0.80E-01    1.0     0.00001956      -776.9588809649 -2.97E-05
   251 OT SD       0.80E-01    1.0     0.00001957      -776.9589107327 -2.98E-05
   252 OT SD       0.80E-01    1.0     0.00001959      -776.9589405513 -2.98E-05
   253 OT SD       0.80E-01    1.0     0.00001961      -776.9589704207 -2.99E-05
   254 OT SD       0.80E-01    1.0     0.00001962      -776.9590003408 -2.99E-05
   255 OT SD       0.80E-01    1.0     0.00001964      -776.9590303116 -3.00E-05
   256 OT SD       0.80E-01    1.0     0.00001966      -776.9590603331 -3.00E-05
   257 OT SD       0.80E-01    1.0     0.00001967      -776.9590904054 -3.01E-05
   258 OT SD       0.80E-01    1.0     0.00001969      -776.9591205283 -3.01E-05
   259 OT SD       0.80E-01    1.0     0.00001971      -776.9591507019 -3.02E-05
   260 OT SD       0.80E-01    1.0     0.00001972      -776.9591809262 -3.02E-05

  Leaving inner SCF loop after reaching   260 steps.


  Electronic density on regular grids:       -546.9999014340        0.0000985660
  Core density on regular grids:              547.0001996275        0.0001996275
  Total charge density on r-space grids:        0.0002981935
  Total charge density g-space grids:           0.0002981935

  Overlap energy of the core charge distribution:               0.00002768528561
  Self energy of the core charge distribution:              -1818.93091964841528
  Core Hamiltonian energy:                                    565.01370087254395
  Hartree energy:                                             714.61743768100337
  Exchange-correlation energy:                               -237.25515142915560
  Dispersion energy:                                           -0.40427608748734

  Total energy:                                              -776.95918092622526

  outer SCF iter =    1 RMS gradient =   0.20E-04 energy =       -776.9591809262

  ----------------------------------- OT ---------------------------------------
  Minimizer      : DIIS                : direct inversion
                                         in the iterative subspace
                                         using   7 DIIS vectors
                                         safer DIIS on
  Preconditioner : FULL_SINGLE_INVERSE : inversion of 
                                         H + eS - 2*(Sc)(c^T*H*c+const)(Sc)^T
  Precond_solver : DEFAULT
  stepsize       :    0.08000000                  energy_gap     :    0.08000000
  eps_taylor     :   0.10000E-15                  max_taylor     :             4
  ----------------------------------- OT ---------------------------------------

  Step     Update method      Time    Convergence         Total energy    Change
  ------------------------------------------------------------------------------
     1 OT DIIS     0.80E-01    2.3     0.00015931      -776.9592112011 -3.03E-05
     2 OT DIIS     0.80E-01    0.9     0.00012866      -776.9609728038 -1.76E-03
     3 OT DIIS     0.80E-01    0.9     0.00009725      -776.9636938841 -2.72E-03
     4 OT DIIS     0.80E-01    0.9     0.00009329      -776.9650530779 -1.36E-03
     5 OT DIIS     0.80E-01    1.0     0.00009290      -776.9661065406 -1.05E-03
     6 OT SD       0.80E-01    1.0     0.00009315      -776.9664768357 -3.70E-04
     7 OT SD       0.80E-01    1.0     0.00009375      -776.9671539118 -6.77E-04
     8 OT SD       0.80E-01    1.0     0.00009443      -776.9678401623 -6.86E-04
     9 OT SD       0.80E-01    1.0     0.00009512      -776.9685364604 -6.96E-04
    10 OT SD       0.80E-01    1.0     0.00009578      -776.9692428733 -7.06E-04
    11 OT DIIS     0.80E-01    1.0     0.00009638      -776.9699589161 -7.16E-04
    12 OT SD       0.80E-01    1.0     0.00011415      -776.9709618164 -1.00E-03
    13 OT SD       0.80E-01    1.0     0.00010742      -776.9719269927 -9.65E-04
    14 OT SD       0.80E-01    1.0     0.00010611      -776.9728176623 -8.91E-04
    15 OT SD       0.80E-01    1.0     0.00010516      -776.9736892793 -8.72E-04
    16 OT SD       0.80E-01    1.0     0.00010429      -776.9745459648 -8.57E-04
    17 OT SD       0.80E-01    1.0     0.00010339      -776.9753884404 -8.42E-04
    18 OT DIIS     0.80E-01    1.0     0.00010243      -776.9762162917 -8.28E-04
    19 OT SD       0.80E-01    1.0     0.00007537      -776.9908180834 -1.46E-02
    20 OT SD       0.80E-01    1.0     0.00004634      -776.9911572771 -3.39E-04
    21 OT DIIS     0.80E-01    1.0     0.00003955      -776.9913094278 -1.52E-04
    22 OT DIIS     0.80E-01    1.0     0.00004747      -776.9909654059  3.44E-04
    23 OT DIIS     0.80E-01    1.0     0.00003079      -776.9920466516 -1.08E-03
    24 OT DIIS     0.80E-01    1.0     0.00002453      -776.9921869139 -1.40E-04
    25 OT DIIS     0.80E-01    1.0     0.00001559      -776.9924445224 -2.58E-04
    26 OT DIIS     0.80E-01    1.0     0.00001211      -776.9925325724 -8.80E-05
    27 OT DIIS     0.80E-01    1.0     0.00000942      -776.9925755847 -4.30E-05

  *** SCF run converged in    27 steps ***


  Electronic density on regular grids:       -546.9999013681        0.0000986319
  Core density on regular grids:              547.0001996275        0.0001996275
  Total charge density on r-space grids:        0.0002982593
  Total charge density g-space grids:           0.0002982593

  Overlap energy of the core charge distribution:               0.00002768528561
  Self energy of the core charge distribution:              -1818.93091964841528
  Core Hamiltonian energy:                                    565.07407296864358
  Hartree energy:                                             714.57453709386311
  Exchange-correlation energy:                               -237.30601759657148
  Dispersion energy:                                           -0.40427608748734

  Total energy:                                              -776.99257558468173

  outer SCF iter =    2 RMS gradient =   0.94E-05 energy =       -776.9925755847
  outer SCF loop converged in   2 iterations or  287 steps


  Integrated spin density:                                          0.9999976193
  Integrated absolute spin density:                                 9.0032911594
  Ideal and single determinant S**2 :                    0.750000       2.733450

 ENERGY| Total FORCE_EVAL ( QS ) energy [hartree]           -776.992601137146266

 OPT| **************************************************************************
 OPT| Step number                                                              0
 OPT| Optimization method                                                   BFGS
 OPT| Total energy [hartree]                                     -776.9926011371
 OPT| Used time [s]                                                      292.675
 OPT| **************************************************************************
 OPT| Estimated peak process memory [MiB]                                    638

 --------------------------
 OPTIMIZATION STEP:      1
 --------------------------

 Extrapolation method: ASPC

 Spin 1

 Number of electrons:                                                        274
 Number of occupied orbitals:                                                274
 Number of molecular orbitals:                                               274

 Spin 2

 Number of electrons:                                                        273
 Number of occupied orbitals:                                                273
 Number of molecular orbitals:                                               273

 Number of orbital functions:                                               1778
 Number of independent orbital functions:                                   1778


 SCF WAVEFUNCTION OPTIMIZATION

  ----------------------------------- OT ---------------------------------------
  Minimizer      : DIIS                : direct inversion
                                         in the iterative subspace
                                         using   7 DIIS vectors
                                         safer DIIS on
  Preconditioner : FULL_SINGLE_INVERSE : inversion of 
                                         H + eS - 2*(Sc)(c^T*H*c+const)(Sc)^T
  Precond_solver : DEFAULT
  stepsize       :    0.08000000                  energy_gap     :    0.08000000
  eps_taylor     :   0.10000E-15                  max_taylor     :             4
  ----------------------------------- OT ---------------------------------------

  Step     Update method      Time    Convergence         Total energy    Change
  ------------------------------------------------------------------------------
     1 OT DIIS     0.80E-01    1.0     0.00001282      -776.9926368225 -7.77E+02
     2 OT DIIS     0.80E-01    0.9     0.00001016      -776.9926481320 -1.13E-05
     3 OT DIIS     0.80E-01    0.9     0.00000660      -776.9926641872 -1.61E-05

  *** SCF run converged in     3 steps ***


  Electronic density on regular grids:       -546.9999013482        0.0000986518
  Core density on regular grids:              547.0001996275        0.0001996275
  Total charge density on r-space grids:        0.0002982793
  Total charge density g-space grids:           0.0002982793

  Overlap energy of the core charge distribution:               0.00002768540385
  Self energy of the core charge distribution:              -1818.93091964841528
  Core Hamiltonian energy:                                    565.07956731095112
  Hartree energy:                                             714.57097764110051
  Exchange-correlation energy:                               -237.30805391861813
  Dispersion energy:                                           -0.40426325760185

  Total energy:                                              -776.99266418717968

  outer SCF iter =    1 RMS gradient =   0.66E-05 energy =       -776.9926641872
  outer SCF loop converged in   1 iterations or    3 steps


  Integrated spin density:                                          0.9999976389
  Integrated absolute spin density:                                 8.9898242347
  Ideal and single determinant S**2 :                    0.750000       2.736895

 ENERGY| Total FORCE_EVAL ( QS ) energy [hartree]           -776.992670419301362

 OPT| **************************************************************************
 OPT| Step number                                                              1
 OPT| Optimization method                                                   BFGS
 OPT| Total energy [hartree]                                     -776.9926704193
 OPT| Effective energy change [hartree]                            -0.0000692822
 OPT| Predicted energy change [hartree]                            -0.0000420943
 OPT| Scaling factor                                                0.0000000000
 OPT| Step size                                                     0.0201274829
 OPT| Trust radius                                                  0.4724315332
 OPT| Decrease in energy                                                     YES
 OPT| Used time [s]                                                        4.395
 OPT|
 OPT| Maximum step size                                             0.0201274829
 OPT| Convergence limit for maximum step size                       0.0030000000
 OPT| Maximum step size is converged                                          NO
 OPT|
 OPT| RMS step size                                                 0.0013864030
 OPT| Convergence limit for RMS step size                           0.0015000000
 OPT| RMS step size is converged                                             YES
 OPT|
 OPT| Maximum gradient                                              0.0020564539
 OPT| Convergence limit for maximum gradient                        0.0008000000
 OPT| Maximum gradient is converged                                           NO
 OPT|
 OPT| RMS gradient                                                  0.0001314348
 OPT| Convergence limit for RMS gradient                            0.0003000000
 OPT| RMS gradient is converged                                              YES
 OPT| **************************************************************************
 OPT| Estimated peak process memory after this step [MiB]                    642

 --------------------------
 OPTIMIZATION STEP:      2
 --------------------------

 Extrapolation method: ASPC

 Spin 1

 Number of electrons:                                                        274
 Number of occupied orbitals:                                                274
 Number of molecular orbitals:                                               274

 Spin 2

 Number of electrons:                                                        273
 Number of occupied orbitals:                                                273
 Number of molecular orbitals:                                               273

 Number of orbital functions:                                               1778
 Number of independent orbital functions:                                   1778


 SCF WAVEFUNCTION OPTIMIZATION

  ----------------------------------- OT ---------------------------------------
  Minimizer      : DIIS                : direct inversion
                                         in the iterative subspace
                                         using   7 DIIS vectors
                                         safer DIIS on
  Preconditioner : FULL_SINGLE_INVERSE : inversion of 
                                         H + eS - 2*(Sc)(c^T*H*c+const)(Sc)^T
  Precond_solver : DEFAULT
  stepsize       :    0.08000000                  energy_gap     :    0.08000000
  eps_taylor     :   0.10000E-15                  max_taylor     :             4
  ----------------------------------- OT ---------------------------------------

  Step     Update method      Time    Convergence         Total energy    Change
  ------------------------------------------------------------------------------
     1 OT DIIS     0.80E-01    0.9     0.00001450      -776.9927597302 -7.77E+02
     2 OT DIIS     0.80E-01    0.9     0.00001053      -776.9927734630 -1.37E-05
     3 OT DIIS     0.80E-01    0.9     0.00000673      -776.9927857770 -1.23E-05

  *** SCF run converged in     3 steps ***


  Electronic density on regular grids:       -546.9999013177        0.0000986823
  Core density on regular grids:              547.0001996275        0.0001996275
  Total charge density on r-space grids:        0.0002983098
  Total charge density g-space grids:           0.0002983098

  Overlap energy of the core charge distribution:               0.00002768540407
  Self energy of the core charge distribution:              -1818.93091964841528
  Core Hamiltonian energy:                                    565.07966049980723
  Hartree energy:                                             714.57088364841604
  Exchange-correlation energy:                               -237.30817451756596
  Dispersion energy:                                           -0.40426344465100

  Total energy:                                              -776.99278577700477

  outer SCF iter =    1 RMS gradient =   0.67E-05 energy =       -776.9927857770
  outer SCF loop converged in   1 iterations or    3 steps


  Integrated spin density:                                          0.9999976775
  Integrated absolute spin density:                                 8.9777809905
  Ideal and single determinant S**2 :                    0.750000       2.742220

 ENERGY| Total FORCE_EVAL ( QS ) energy [hartree]           -776.992791270792850

 OPT| **************************************************************************
 OPT| Step number                                                              2
 OPT| Optimization method                                                   BFGS
 OPT| Total energy [hartree]                                     -776.9927912708
 OPT| Effective energy change [hartree]                            -0.0001208515
 OPT| Predicted energy change [hartree]                            -0.0000580081
 OPT| Scaling factor                                                0.0000000000
 OPT| Step size                                                     0.0410413752
 OPT| Trust radius                                                  0.4724315332
 OPT| Decrease in energy                                                     YES
 OPT| Used time [s]                                                        4.328
 OPT|
 OPT| Maximum step size                                             0.0410413752
 OPT| Convergence limit for maximum step size                       0.0030000000
 OPT| Maximum step size is converged                                          NO
 OPT|
 OPT| RMS step size                                                 0.0027052208
 OPT| Convergence limit for RMS step size                           0.0015000000
 OPT| RMS step size is converged                                              NO
 OPT|
 OPT| Maximum gradient                                              0.0018866392
 OPT| Convergence limit for maximum gradient                        0.0008000000
 OPT| Maximum gradient is converged                                           NO
 OPT|
 OPT| RMS gradient                                                  0.0001097278
 OPT| Convergence limit for RMS gradient                            0.0003000000
 OPT| RMS gradient is converged                                              YES
 OPT| **************************************************************************
 OPT| Estimated peak process memory after this step [MiB]                    642

 --------------------------
 OPTIMIZATION STEP:      3
 --------------------------

 Extrapolation method: ASPC

 Spin 1

 Number of electrons:                                                        274
 Number of occupied orbitals:                                                274
 Number of molecular orbitals:                                               274

 Spin 2

 Number of electrons:                                                        273
 Number of occupied orbitals:                                                273
 Number of molecular orbitals:                                               273

 Number of orbital functions:                                               1778
 Number of independent orbital functions:                                   1778


 SCF WAVEFUNCTION OPTIMIZATION

  ----------------------------------- OT ---------------------------------------
  Minimizer      : DIIS                : direct inversion
                                         in the iterative subspace
                                         using   7 DIIS vectors
                                         safer DIIS on
  Preconditioner : FULL_SINGLE_INVERSE : inversion of 
                                         H + eS - 2*(Sc)(c^T*H*c+const)(Sc)^T
  Precond_solver : DEFAULT
  stepsize       :    0.08000000                  energy_gap     :    0.08000000
  eps_taylor     :   0.10000E-15                  max_taylor     :             4
  ----------------------------------- OT ---------------------------------------

  Step     Update method      Time    Convergence         Total energy    Change
  ------------------------------------------------------------------------------
     1 OT DIIS     0.80E-01    0.9     0.00003047      -776.9929646911 -7.77E+02
     2 OT DIIS     0.80E-01    0.9     0.00002311      -776.9930273220 -6.26E-05
     3 OT DIIS     0.80E-01    0.9     0.00001262      -776.9931004851 -7.32E-05
     4 OT DIIS     0.80E-01    0.9     0.00000620      -776.9931198724 -1.94E-05

  *** SCF run converged in     4 steps ***


  Electronic density on regular grids:       -546.9999012689        0.0000987311
  Core density on regular grids:              547.0001996275        0.0001996275
  Total charge density on r-space grids:        0.0002983586
  Total charge density g-space grids:           0.0002983586

  Overlap energy of the core charge distribution:               0.00002768534067
  Self energy of the core charge distribution:              -1818.93091964841528
  Core Hamiltonian energy:                                    565.07622424464057
  Hartree energy:                                             714.57261613341745
  Exchange-correlation energy:                               -237.30679533815356
  Dispersion energy:                                           -0.40427294918702

  Total energy:                                              -776.99311987235717

  outer SCF iter =    1 RMS gradient =   0.62E-05 energy =       -776.9931198724
  outer SCF loop converged in   1 iterations or    4 steps


  Integrated spin density:                                          0.9999977509
  Integrated absolute spin density:                                 8.9752716152
  Ideal and single determinant S**2 :                    0.750000       2.749080

 ENERGY| Total FORCE_EVAL ( QS ) energy [hartree]           -776.993124214295335

 OPT| **************************************************************************
 OPT| Step number                                                              3
 OPT| Optimization method                                                   BFGS
 OPT| Total energy [hartree]                                     -776.9931242143
 OPT| Effective energy change [hartree]                            -0.0003329435
 OPT| Predicted energy change [hartree]                            -0.0001396431
 OPT| Scaling factor                                                0.0000000000
 OPT| Step size                                                     0.1253261403
 OPT| Trust radius                                                  0.4724315332
 OPT| Decrease in energy                                                     YES
 OPT| Used time [s]                                                        5.306
 OPT|
 OPT| Maximum step size                                             0.1253261403
 OPT| Convergence limit for maximum step size                       0.0030000000
 OPT| Maximum step size is converged                                          NO
 OPT|
 OPT| RMS step size                                                 0.0083222175
 OPT| Convergence limit for RMS step size                           0.0015000000
 OPT| RMS step size is converged                                              NO
 OPT|
 OPT| Maximum gradient                                              0.0023201091
 OPT| Convergence limit for maximum gradient                        0.0008000000
 OPT| Maximum gradient is converged                                           NO
 OPT|
 OPT| RMS gradient                                                  0.0001230187
 OPT| Convergence limit for RMS gradient                            0.0003000000
 OPT| RMS gradient is converged                                              YES
 OPT| **************************************************************************
 OPT| Estimated peak process memory after this step [MiB]                    642

 --------------------------
 OPTIMIZATION STEP:      4
 --------------------------

  Step is scaled; Scaling factor =  0.02755

 Extrapolation method: ASPC

 Spin 1

 Number of electrons:                                                        274
 Number of occupied orbitals:                                                274
 Number of molecular orbitals:                                               274

 Spin 2

 Number of electrons:                                                        273
 Number of occupied orbitals:                                                273
 Number of molecular orbitals:                                               273

 Number of orbital functions:                                               1778
 Number of independent orbital functions:                                   1778


 SCF WAVEFUNCTION OPTIMIZATION

  ----------------------------------- OT ---------------------------------------
  Minimizer      : DIIS                : direct inversion
                                         in the iterative subspace
                                         using   7 DIIS vectors
                                         safer DIIS on
  Preconditioner : FULL_SINGLE_INVERSE : inversion of 
                                         H + eS - 2*(Sc)(c^T*H*c+const)(Sc)^T
  Precond_solver : DEFAULT
  stepsize       :    0.08000000                  energy_gap     :    0.08000000
  eps_taylor     :   0.10000E-15                  max_taylor     :             4
  ----------------------------------- OT ---------------------------------------

  Step     Update method      Time    Convergence         Total energy    Change
  ------------------------------------------------------------------------------
     1 OT DIIS     0.80E-01    0.9     0.00008109      -776.9921359667 -7.77E+02
     2 OT DIIS     0.80E-01    0.9     0.00006157      -776.9925822613 -4.46E-04
     3 OT DIIS     0.80E-01    0.9     0.00002568      -776.9931659676 -5.84E-04
     4 OT DIIS     0.80E-01    0.9     0.00001475      -776.9932626659 -9.67E-05
     5 OT DIIS     0.80E-01    0.9     0.00000990      -776.9932896312 -2.70E-05

  *** SCF run converged in     5 steps ***


  Electronic density on regular grids:       -546.9999010199        0.0000989801
  Core density on regular grids:              547.0001996275        0.0001996275
  Total charge density on r-space grids:        0.0002986076
  Total charge density g-space grids:           0.0002986076

  Overlap energy of the core charge distribution:               0.00002768510825
  Self energy of the core charge distribution:              -1818.93091964841528
  Core Hamiltonian energy:                                    565.06217968695989
  Hartree energy:                                             714.58007808854040
  Exchange-correlation energy:                               -237.30046003251442
  Dispersion energy:                                           -0.40419541085566

  Total energy:                                              -776.99328963117682

  outer SCF iter =    1 RMS gradient =   0.99E-05 energy =       -776.9932896312
  outer SCF loop converged in   1 iterations or    5 steps


  Integrated spin density:                                          0.9999978939
  Integrated absolute spin density:                                 8.9797869713
  Ideal and single determinant S**2 :                    0.750000       2.754985

 ENERGY| Total FORCE_EVAL ( QS ) energy [hartree]           -776.993304559726653

 OPT| **************************************************************************
 OPT| Step number                                                              4
 OPT| Optimization method                                                   BFGS
 OPT| Total energy [hartree]                                     -776.9933045597
 OPT| Effective energy change [hartree]                            -0.0001803454
 OPT| Predicted energy change [hartree]                            -0.0019541948
 OPT| Scaling factor                                                0.0275507187
 OPT| Step size                                                     0.4724315332
 OPT| Trust radius                                                  0.4724315332
 OPT| Decrease in energy                                                     YES
 OPT| Used time [s]                                                        6.284
 OPT|
 OPT| Maximum step size                                             0.4724315332
 OPT| Convergence limit for maximum step size                       0.0030000000
 OPT| Maximum step size is converged                                          NO
 OPT|
 OPT| RMS step size                                                 0.0284963745
 OPT| Convergence limit for RMS step size                           0.0015000000
 OPT| RMS step size is converged                                              NO
 OPT|
 OPT| Maximum gradient                                              0.0042121049
 OPT| Convergence limit for maximum gradient                        0.0008000000
 OPT| Maximum gradient is converged                                           NO
 OPT|
 OPT| RMS gradient                                                  0.0002737381
 OPT| Convergence limit for RMS gradient                            0.0003000000
 OPT| RMS gradient is converged                                              YES
 OPT| **************************************************************************
 OPT| Estimated peak process memory after this step [MiB]                    645

 --------------------------
 OPTIMIZATION STEP:      5
 --------------------------

 Extrapolation method: ASPC

 Spin 1

 Number of electrons:                                                        274
 Number of occupied orbitals:                                                274
 Number of molecular orbitals:                                               274

 Spin 2

 Number of electrons:                                                        273
 Number of occupied orbitals:                                                273
 Number of molecular orbitals:                                               273

 Number of orbital functions:                                               1778
 Number of independent orbital functions:                                   1778


 SCF WAVEFUNCTION OPTIMIZATION

  ----------------------------------- OT ---------------------------------------
  Minimizer      : DIIS                : direct inversion
                                         in the iterative subspace
                                         using   7 DIIS vectors
                                         safer DIIS on
  Preconditioner : FULL_SINGLE_INVERSE : inversion of 
                                         H + eS - 2*(Sc)(c^T*H*c+const)(Sc)^T
  Precond_solver : DEFAULT
  stepsize       :    0.08000000                  energy_gap     :    0.08000000
  eps_taylor     :   0.10000E-15                  max_taylor     :             4
  ----------------------------------- OT ---------------------------------------

  Step     Update method      Time    Convergence         Total energy    Change
  ------------------------------------------------------------------------------
     1 OT DIIS     0.80E-01    0.9     0.00026249      -776.9812451298 -7.77E+02
     2 OT DIIS     0.80E-01    1.0     0.00020114      -776.9859533446 -4.71E-03
     3 OT DIIS     0.80E-01    1.0     0.00007003      -776.9924425639 -6.49E-03
     4 OT DIIS     0.80E-01    1.0     0.00004181      -776.9930877763 -6.45E-04
     5 OT DIIS     0.80E-01    1.0     0.00002930      -776.9932579113 -1.70E-04
     6 OT DIIS     0.80E-01    1.0     0.00001517      -776.9933949755 -1.37E-04
     7 OT DIIS     0.80E-01    1.0     0.00000897      -776.9934303981 -3.54E-05

  *** SCF run converged in     7 steps ***


  Electronic density on regular grids:       -546.9999010598        0.0000989402
  Core density on regular grids:              547.0001996275        0.0001996275
  Total charge density on r-space grids:        0.0002985677
  Total charge density g-space grids:           0.0002985677

  Overlap energy of the core charge distribution:               0.00002768528731
  Self energy of the core charge distribution:              -1818.93091964841528
  Core Hamiltonian energy:                                    565.07391473603684
  Hartree energy:                                             714.57239373630762
  Exchange-correlation energy:                               -237.30464623970690
  Dispersion energy:                                           -0.40420066761259

  Total energy:                                              -776.99343039810310

  outer SCF iter =    1 RMS gradient =   0.90E-05 energy =       -776.9934303981
  outer SCF loop converged in   1 iterations or    7 steps


  Integrated spin density:                                          0.9999978953
  Integrated absolute spin density:                                 8.9782080978
  Ideal and single determinant S**2 :                    0.750000       2.755898

 ENERGY| Total FORCE_EVAL ( QS ) energy [hartree]           -776.993442190826272

 OPT| **************************************************************************
 OPT| Step number                                                              5
 OPT| Optimization method                                                   BFGS
 OPT| Total energy [hartree]                                     -776.9934421908
 OPT| Effective energy change [hartree]                            -0.0001376311
 OPT| Predicted energy change [hartree]                            -0.0001195064
 OPT| Scaling factor                                                0.0275507187
 OPT| Step size                                                     0.0884779225
 OPT| Trust radius                                                  0.4724315332
 OPT| Decrease in energy                                                     YES
 OPT| Used time [s]                                                        8.464
 OPT|
 OPT| Maximum step size                                             0.0884779225
 OPT| Convergence limit for maximum step size                       0.0030000000
 OPT| Maximum step size is converged                                          NO
 OPT|
 OPT| RMS step size                                                 0.0058194293
 OPT| Convergence limit for RMS step size                           0.0015000000
 OPT| RMS step size is converged                                              NO
 OPT|
 OPT| Maximum gradient                                              0.0016897851
 OPT| Convergence limit for maximum gradient                        0.0008000000
 OPT| Maximum gradient is converged                                           NO
 OPT|
 OPT| RMS gradient                                                  0.0001041942
 OPT| Convergence limit for RMS gradient                            0.0003000000
 OPT| RMS gradient is converged                                              YES
 OPT| **************************************************************************
 OPT| Estimated peak process memory after this step [MiB]                    652

 --------------------------
 OPTIMIZATION STEP:      6
 --------------------------

 Extrapolation method: ASPC

 Spin 1

 Number of electrons:                                                        274
 Number of occupied orbitals:                                                274
 Number of molecular orbitals:                                               274

 Spin 2

 Number of electrons:                                                        273
 Number of occupied orbitals:                                                273
 Number of molecular orbitals:                                               273

 Number of orbital functions:                                               1778
 Number of independent orbital functions:                                   1778


 SCF WAVEFUNCTION OPTIMIZATION

  ----------------------------------- OT ---------------------------------------
  Minimizer      : DIIS                : direct inversion
                                         in the iterative subspace
                                         using   7 DIIS vectors
                                         safer DIIS on
  Preconditioner : FULL_SINGLE_INVERSE : inversion of 
                                         H + eS - 2*(Sc)(c^T*H*c+const)(Sc)^T
  Precond_solver : DEFAULT
  stepsize       :    0.08000000                  energy_gap     :    0.08000000
  eps_taylor     :   0.10000E-15                  max_taylor     :             4
  ----------------------------------- OT ---------------------------------------

  Step     Update method      Time    Convergence         Total energy    Change
  ------------------------------------------------------------------------------
     1 OT DIIS     0.80E-01    0.9     0.00020430      -776.9869760942 -7.77E+02
     2 OT DIIS     0.80E-01    0.9     0.00014958      -776.9897509972 -2.77E-03
     3 OT DIIS     0.80E-01    1.0     0.00006641      -776.9927399350 -2.99E-03
     4 OT DIIS     0.80E-01    1.0     0.00003226      -776.9933656296 -6.26E-04
     5 OT DIIS     0.80E-01    1.0     0.00002319      -776.9934562641 -9.06E-05
     6 OT DIIS     0.80E-01    1.0     0.00001119      -776.9935364488 -8.02E-05
     7 OT DIIS     0.80E-01    1.0     0.00000634      -776.9935554035 -1.90E-05

  *** SCF run converged in     7 steps ***


  Electronic density on regular grids:       -546.9999011664        0.0000988336
  Core density on regular grids:              547.0001996275        0.0001996275
  Total charge density on r-space grids:        0.0002984611
  Total charge density g-space grids:           0.0002984611

  Overlap energy of the core charge distribution:               0.00002768542625
  Self energy of the core charge distribution:              -1818.93091964841528
  Core Hamiltonian energy:                                    565.08196480773177
  Hartree energy:                                             714.56802150795124
  Exchange-correlation energy:                               -237.30841372927046
  Dispersion energy:                                           -0.40423602693800

  Total energy:                                              -776.99355540351451

  outer SCF iter =    1 RMS gradient =   0.63E-05 energy =       -776.9935554035
  outer SCF loop converged in   1 iterations or    7 steps


  Integrated spin density:                                          0.9999978201
  Integrated absolute spin density:                                 8.9718345105
  Ideal and single determinant S**2 :                    0.750000       2.751793

 ENERGY| Total FORCE_EVAL ( QS ) energy [hartree]           -776.993561473154386

 OPT| **************************************************************************
 OPT| Step number                                                              6
 OPT| Optimization method                                                   BFGS
 OPT| Total energy [hartree]                                     -776.9935614732
 OPT| Effective energy change [hartree]                            -0.0001192823
 OPT| Predicted energy change [hartree]                            -0.0000810138
 OPT| Scaling factor                                                0.0275507187
 OPT| Step size                                                     0.1624943127
 OPT| Trust radius                                                  0.4724315332
 OPT| Decrease in energy                                                     YES
 OPT| Used time [s]                                                        8.415
 OPT|
 OPT| Maximum step size                                             0.1624943127
 OPT| Convergence limit for maximum step size                       0.0030000000
 OPT| Maximum step size is converged                                          NO
 OPT|
 OPT| RMS step size                                                 0.0102943777
 OPT| Convergence limit for RMS step size                           0.0015000000
 OPT| RMS step size is converged                                              NO
 OPT|
 OPT| Maximum gradient                                              0.0035426922
 OPT| Convergence limit for maximum gradient                        0.0008000000
 OPT| Maximum gradient is converged                                           NO
 OPT|
 OPT| RMS gradient                                                  0.0002052896
 OPT| Convergence limit for RMS gradient                            0.0003000000
 OPT| RMS gradient is converged                                              YES
 OPT| **************************************************************************
 OPT| Estimated peak process memory after this step [MiB]                    652

 --------------------------
 OPTIMIZATION STEP:      7
 --------------------------

 Extrapolation method: ASPC

 Spin 1

 Number of electrons:                                                        274
 Number of occupied orbitals:                                                274
 Number of molecular orbitals:                                               274

 Spin 2

 Number of electrons:                                                        273
 Number of occupied orbitals:                                                273
 Number of molecular orbitals:                                               273

 Number of orbital functions:                                               1778
 Number of independent orbital functions:                                   1778


 SCF WAVEFUNCTION OPTIMIZATION

  ----------------------------------- OT ---------------------------------------
  Minimizer      : DIIS                : direct inversion
                                         in the iterative subspace
                                         using   7 DIIS vectors
                                         safer DIIS on
  Preconditioner : FULL_SINGLE_INVERSE : inversion of 
                                         H + eS - 2*(Sc)(c^T*H*c+const)(Sc)^T
  Precond_solver : DEFAULT
  stepsize       :    0.08000000                  energy_gap     :    0.08000000
  eps_taylor     :   0.10000E-15                  max_taylor     :             4
  ----------------------------------- OT ---------------------------------------

  Step     Update method      Time    Convergence         Total energy    Change
  ------------------------------------------------------------------------------
     1 OT DIIS     0.80E-01    0.9     0.00003514      -776.9933162821 -7.77E+02
     2 OT DIIS     0.80E-01    0.9     0.00002860      -776.9934017075 -8.54E-05
     3 OT DIIS     0.80E-01    0.9     0.00002057      -776.9935092234 -1.08E-04
     4 OT DIIS     0.80E-01    0.9     0.00000997      -776.9935862032 -7.70E-05

  *** SCF run converged in     4 steps ***


  Electronic density on regular grids:       -546.9999011209        0.0000988791
  Core density on regular grids:              547.0001996275        0.0001996275
  Total charge density on r-space grids:        0.0002985066
  Total charge density g-space grids:           0.0002985066

  Overlap energy of the core charge distribution:               0.00002768534940
  Self energy of the core charge distribution:              -1818.93091964841528
  Core Hamiltonian energy:                                    565.07852156477861
  Hartree energy:                                             714.57026028053565
  Exchange-correlation energy:                               -237.30723661942349
  Dispersion energy:                                           -0.40423946604546

  Total energy:                                              -776.99358620322073

  outer SCF iter =    1 RMS gradient =   0.10E-04 energy =       -776.9935862032
  outer SCF loop converged in   1 iterations or    4 steps


  Integrated spin density:                                          0.9999978106
  Integrated absolute spin density:                                 8.9708425329
  Ideal and single determinant S**2 :                    0.750000       2.746767

 ENERGY| Total FORCE_EVAL ( QS ) energy [hartree]           -776.993603043363464

 OPT| **************************************************************************
 OPT| Step number                                                              7
 OPT| Optimization method                                                   BFGS
 OPT| Total energy [hartree]                                     -776.9936030434
 OPT| Effective energy change [hartree]                            -0.0000415702
 OPT| Predicted energy change [hartree]                            -0.0000343917
 OPT| Scaling factor                                                0.0275507187
 OPT| Step size                                                     0.0429085731
 OPT| Trust radius                                                  0.4724315332
 OPT| Decrease in energy                                                     YES
 OPT| Used time [s]                                                        5.350
 OPT|
 OPT| Maximum step size                                             0.0429085731
 OPT| Convergence limit for maximum step size                       0.0030000000
 OPT| Maximum step size is converged                                          NO
 OPT|
 OPT| RMS step size                                                 0.0026893699
 OPT| Convergence limit for RMS step size                           0.0015000000
 OPT| RMS step size is converged                                              NO
 OPT|
 OPT| Maximum gradient                                              0.0020177735
 OPT| Convergence limit for maximum gradient                        0.0008000000
 OPT| Maximum gradient is converged                                           NO
 OPT|
 OPT| RMS gradient                                                  0.0001171964
 OPT| Convergence limit for RMS gradient                            0.0003000000
 OPT| RMS gradient is converged                                              YES
 OPT| **************************************************************************
 OPT| Estimated peak process memory after this step [MiB]                    652

 --------------------------
 OPTIMIZATION STEP:      8
 --------------------------

 Extrapolation method: ASPC

 Spin 1

 Number of electrons:                                                        274
 Number of occupied orbitals:                                                274
 Number of molecular orbitals:                                               274

 Spin 2

 Number of electrons:                                                        273
 Number of occupied orbitals:                                                273
 Number of molecular orbitals:                                               273

 Number of orbital functions:                                               1778
 Number of independent orbital functions:                                   1778


 SCF WAVEFUNCTION OPTIMIZATION

  ----------------------------------- OT ---------------------------------------
  Minimizer      : DIIS                : direct inversion
                                         in the iterative subspace
                                         using   7 DIIS vectors
                                         safer DIIS on
  Preconditioner : FULL_SINGLE_INVERSE : inversion of 
                                         H + eS - 2*(Sc)(c^T*H*c+const)(Sc)^T
  Precond_solver : DEFAULT
  stepsize       :    0.08000000                  energy_gap     :    0.08000000
  eps_taylor     :   0.10000E-15                  max_taylor     :             4
  ----------------------------------- OT ---------------------------------------

  Step     Update method      Time    Convergence         Total energy    Change
  ------------------------------------------------------------------------------
     1 OT DIIS     0.80E-01    0.9     0.00009833      -776.9920082205 -7.77E+02
     2 OT DIIS     0.80E-01    0.9     0.00007423      -776.9926632312 -6.55E-04
     3 OT DIIS     0.80E-01    0.9     0.00003099      -776.9934942296 -8.31E-04
     4 OT DIIS     0.80E-01    0.9     0.00001865      -776.9936081740 -1.14E-04
     5 OT DIIS     0.80E-01    0.9     0.00001149      -776.9936563561 -4.82E-05
[...]
 flops   200 x    81 x   444          60333206400     100.0%      0.0%      0.0%     
 flops   197 x    64 x    64          60973498368     100.0%      0.0%      0.0%     
 flops   200 x    82 x   444          61078060800     100.0%      0.0%      0.0%     
 flops    32 x    81 x   444          70390467072     100.0%      0.0%      0.0%     
 flops    81 x    64 x   444          70390467072     100.0%      0.0%      0.0%     
 flops    32 x    82 x   444          71259485184     100.0%      0.0%      0.0%     
 flops    82 x    64 x   444          71259485184     100.0%      0.0%      0.0%     
 flops   244 x    81 x   444          73606511808     100.0%      0.0%      0.0%     
 flops   244 x    82 x   444          74515234176     100.0%      0.0%      0.0%     
 flops   249 x    64 x    64          77068025856     100.0%      0.0%      0.0%     
 flops     5 x    32 x    13          88452049920     100.0%      0.0%      0.0%     
 flops    13 x    32 x     5          88452049920     100.0%      0.0%      0.0%     
 flops    13 x    17 x    13          92085413238     100.0%      0.0%      0.0%     
 flops   197 x    64 x   444          93911242752     100.0%      0.0%      0.0%     
 flops    32 x    64 x    64          94546427904     100.0%      0.0%      0.0%     
 flops    13 x    18 x    13          94951278396     100.0%      0.0%      0.0%     
 flops   200 x    64 x   446          95770828800     100.0%      0.0%      0.0%     
 flops    13 x    13 x    81          97673752800     100.0%      0.0%      0.0%     
 flops    13 x    13 x    82          98879601600     100.0%      0.0%      0.0%     
 flops    32 x    64 x   446         111735373824     100.0%      0.0%      0.0%     
 flops   244 x    64 x   446         116840411136     100.0%      0.0%      0.0%     
 flops   249 x    64 x   444         118699997184     100.0%      0.0%      0.0%     
 flops   200 x    64 x    64         185706086400     100.0%      0.0%      0.0%     
 flops   244 x    64 x    64         226561425408     100.0%      0.0%      0.0%     
 flops   200 x    64 x   444         286024089600     100.0%      0.0%      0.0%     
 flops    32 x    64 x   444         333702955008     100.0%      0.0%      0.0%     
 flops   244 x    64 x   444         348949389312     100.0%      0.0%      0.0%     
 flops    13 x    13 x    64         463045939200     100.0%      0.0%      0.0%     
 flops    13 x    32 x    13        2737116169216     100.0%      0.0%      0.0%     
 flops inhomo. stacks                           0       0.0%      0.0%      0.0%
 flops total                         7.755664E+12     100.0%      0.0%      0.0%
 flops max/rank                    589.511777E+09     100.0%      0.0%      0.0%
 matmuls inhomo. stacks                         0       0.0%      0.0%      0.0%
 matmuls total                          371368532     100.0%      0.0%      0.0%
 number of processed stacks               3838542     100.0%      0.0%      0.0%
 average stack size                                    96.7       0.0       0.0
 marketing flops                     2.143757E-09
 -------------------------------------------------------------------------------
 # multiplications                          18943
 max memory usage/rank               2.398167E+09
 # max total images/rank                        1
 # max 3D layers                                1
 # MPI messages exchanged                 1818528
 MPI messages size (bytes):
  total size                       -10.406708E+36
  min size                           0.000000E+00
  max size                           1.591328E+06
  average size                      -5.722600E+30
 MPI breakdown and total messages size (bytes):
             size <=      128                8712                        0
       128 < size <=     8192                   0                        0
      8192 < size <=    32768              476586              15604279416
     32768 < size <=   131072              370062              16045450848
    131072 < size <=  4194304              963168             402604929312
   4194304 < size <= 16777216                   0                        0
  16777216 < size                               0                        0
 -------------------------------------------------------------------------------
 -                                                                             -
 -                      DBCSR MESSAGE PASSING PERFORMANCE                      -
 -                                                                             -
 -------------------------------------------------------------------------------
 ROUTINE             CALLS      AVE VOLUME [Bytes]
 MP_Bcast              134                     12.
 MP_Allreduce        89974                      8.
 MP_Alltoall         74392                  45370.
 MP_ISend           302824                  97560.
 MP_IRecv           302824                  95347.
 -------------------------------------------------------------------------------

 -------------------------------------------------------------------------------
 -                                                                             -
 -                                GRID STATISTICS                              -
 -                                                                             -
 -------------------------------------------------------------------------------
 LP    KERNEL             BACKEND                              COUNT     PERCENT
 4     collocate ortho    CPU                               51011912      43.33%
 4     integrate ortho    CPU                               47967982      40.74%
 3     collocate ortho    CPU                                6991410       5.94%
 3     integrate ortho    CPU                                6567124       5.58%
 5     integrate ortho    CPU                                3400586       2.89%
 2     collocate ortho    CPU                                 856530       0.73%
 2     integrate ortho    CPU                                 797586       0.68%
 0     collocate general  CPU                                  74752       0.06%
 1     integrate general  CPU                                  72416       0.06%
 -------------------------------------------------------------------------------

 -------------------------------------------------------------------------------
 -                                                                             -
 -                          OFFLOAD MEMPOOL STATISTICS                         -
 -                                                                             -
 -------------------------------------------------------------------------------
 Memory consumption                Number of allocations  Used [MiB]  Size [MiB]
 Device                                               10          21          21
 Host                                                 10          21          21
 -------------------------------------------------------------------------------

 MEMORY| Estimated peak process memory [MiB]                                 656

 -------------------------------------------------------------------------------
 -                                                                             -
 -                         MESSAGE PASSING PERFORMANCE                         -
 -                                                                             -
 -------------------------------------------------------------------------------

 ROUTINE             CALLS      AVE VOLUME [Bytes]
 MP_Group                4
 MP_Bcast            43852                   1721.
 MP_Allreduce       129989                    623.
 MP_Sync               738
 MP_Alltoall         17722               15226027.
 MP_SendRecv         29760                  84301.
 MP_ISendRecv        27840                  89760.
 MP_Wait            114757
 MP_comm_split         734
 MP_ISend            75580                 333730.
 MP_IRecv            75580                 333726.
 -------------------------------------------------------------------------------


 -------------------------------------------------------------------------------
 -                                                                             -
 -                           R E F E R E N C E S                               -
 -                                                                             -
 -------------------------------------------------------------------------------
 
 CP2K version 2026.1, the CP2K developers group (2026).
 CP2K is freely available from https://www.cp2k.org/ .
 
 T. D. Kuehne, M. Iannuzzi, M. Del Ben, V. V. Rybkin, P. Seewald, F. Stein, T. 
 Laino, R. Z. Khaliullin, O. Schuett, F. Schiffmann, D. Golze, J. Wilhelm, S. 
 Chulkov, M. H. Bani-Hashemian, V. Weber, U. Borstnik, M. Taillefumier, A. S. 
 Jakobovits, A. Lazzaro, H. Pabst, T. Mueller, R. Schade, M. Guidon, S. 
 Andermatt, N. Holmberg, G. K. Schenter, A. Hehn, A. Bussy, F. Belleflamme, G. 
 Tabacchi, A. Gloess, M. Lass, I. Bethune, C. J. Mundy, C. Plessl, M. Watkins, 
 J. VandeVondele, M. Krack, J. Hutter.
 J. Chem. Phys. 152, 194103 (2020).
 CP2K: An electronic structure and molecular dynamics software package - 
 Quickstep: Efficient and accurate electronic structure calculations.
 https://doi.org/10.1063/5.0007045

 L. Goerigk, A. Hansen, C. Bauer, S. Ehrlich, A. Najibi, S. Grimme.
 Phys. Chem. Chem. Phys. 19, 32184-32215 (2017).
 A look at the density functional theory zoo with the advanced GMTKN55 database 
 for general main group thermochemistry, kinetics and noncovalent interactions.
 https://doi.org/10.1039/C7CP04913G

 O. Schuett, P. Messmer, J. Hutter, J. VandeVondele.
 Electronic Structure Calculations on Graphics Processing Units, 173-190 (2016).
 GPU-Accelerated Sparse Matrix-Matrix Multiplication for Linear Scaling Density 
 Functional Theory.
 https://doi.org/10.1002/9781118670712.ch8

 A. Heinecke, G. Henry, M. Hutchinson, H. Pabst.
 Proceedings of Intl. Supercomputing Conference, 981-991 (2016).
 LIBXSMM: Accelerating Small Matrix Multiplications by Runtime Code Generation.
 https://doi.org/10.1109/SC.2016.83

 J. Hutter, M. Iannuzzi, F. Schiffmann, J. VandeVondele.
 WIREs Comput Mol Sci. 4, 15-25 (2014).
 CP2K: atomistic simulations of condensed matter systems.
 https://doi.org/10.1002/wcms.1159

 U. Borstnik, J. VandeVondele, V. Weber, J. Hutter.
 Parallel Comput. 40, 47-58 (2014).
 Sparse matrix multiplication: The distributed block-compressed sparse row 
 library.
 https://doi.org/10.1016/j.parco.2014.03.012

 S. Grimme, S. Ehrlich, L. Goerigk.
 J. Comput. Chem. 32, 1456 (2011).
 Effect of the damping function in dispersion corrected density functional 
 theory.
 https://doi.org/10.1002/jcc.21759

 S. Grimme, J. Antony, S. Ehrlich, H. Krieg.
 J. Chem. Phys. 132, 154104 (2010).
 A consistent and accurate ab initio parametrization of density functional 
 dispersion correction (DFT-D) for the 94 elements H-Pu.
 https://doi.org/10.1063/1.3382344

 J. VandeVondele, J. Hutter.
 J. Chem. Phys. 127, 114105 (2007).
 Gaussian basis sets for accurate calculations on molecular systems in gas and 
 condensed phases.
 https://doi.org/10.1063/1.2770708

 T. D. Kühne, M. Krack, F. R. Mohamed, M. Parrinello.
 Phys. Rev. Lett. 98, 066401 (2007).
 Efficient and accurate Car-Parrinello-like approach to Born-Oppenheimer 
 molecular dynamics.
 https://doi.org/10.1103/PhysRevLett.98.066401

 J. VandeVondele, M. Krack, F. Mohamed, M. Parrinello, T. Chassaing, J. Hutter.
 Comput. Phys. Commun. 167, 103-128 (2005).
 QUICKSTEP: Fast and accurate density functional calculations using a mixed 
 Gaussian and plane waves approach.
 https://doi.org/10.1016/j.cpc.2004.12.014

 M. Krack.
 Theor. Chem. Acc. 114, 145-152 (2005).
 Pseudopotentials for H to Kr optimized for gradient-corrected 
 exchange-correlation functionals.
 https://doi.org/10.1007/s00214-005-0655-y

 M. Frigo, S. G. Johnson.
 Proc. IEEE 93, 216-231 (2005).
 The design and implementation of FFTW3.
 https://doi.org/10.1109/JPROC.2004.840301

 J. Kolafa.
 J. Comput. Chem. 25, 335-342 (2004).
 Time-reversible always stable predictor-corrector method for molecular dynamics 
 of polarizable molecules.
 https://doi.org/10.1002/jcc.10385

 J. VandeVondele, J. Hutter.
 J. Chem. Phys. 118, 4365-4369 (2003).
 An efficient orbital transformation method for electronic structure 
 calculations.
 https://doi.org/10.1063/1.1543154

 C. Hartwigsen, S. Goedecker, J. Hutter.
 Phys. Rev. B 58, 3641-3662 (1998).
 Relativistic separable dual-space Gaussian pseudopotentials from H to Rn.
 https://doi.org/10.1103/PhysRevB.58.3641

 G. Lippert, J. Hutter, M. Parrinello.
 Mol. Phys. 92, 477-487 (1997).
 A hybrid Gaussian and plane wave density functional scheme.
 https://doi.org/10.1080/002689797170220

 S. Goedecker, M. Teter, J. Hutter.
 Phys. Rev. B 54, 1703-1710 (1996).
 Separable dual-space Gaussian pseudopotentials.
 https://doi.org/10.1103/PhysRevB.54.1703

 J. P. Perdew, K. Burke, M. Ernzerhof.
 Phys. Rev. Lett. 77, 3865-3868 (1996).
 Generalized gradient approximation made simple.
 https://doi.org/10.1103/PhysRevLett.77.3865


 -------------------------------------------------------------------------------
 -                                                                             -
 -                                T I M I N G                                  -
 -                                                                             -
 -------------------------------------------------------------------------------
 SUBROUTINE                       CALLS  ASD         SELF TIME        TOTAL TIME
                                MAXIMUM       AVERAGE  MAXIMUM  AVERAGE  MAXIMUM
 CP2K                                 1  1.0    0.024    0.027  480.243  480.244
 cp_geo_opt                           1  2.0    0.000    0.000  479.965  479.966
 geoopt_bfgs                          1  3.0    0.012    0.020  479.965  479.966
 cp_eval_at                          32  4.0    0.002    0.002  478.661  478.662
 qs_forces                           31  5.0    0.004    0.004  476.047  476.047
 qs_energies                         32  6.0    0.002    0.002  453.227  453.230
 scf_env_do_scf                      32  7.0    0.001    0.002  438.506  438.507
 scf_env_do_scf_inner_loop          433  8.0    0.009    0.032  410.683  410.746
 rebuild_ks_matrix                  464  9.8    0.001    0.001  291.556  291.691
 qs_ks_build_kohn_sham_matrix       464 10.8    0.069    0.078  291.555  291.689
 qs_ks_update_qs_env                466  9.0    0.003    0.004  268.402  268.530
 fft_wrap_pw1pw2                  15354 14.2    0.360    0.458  207.158  218.062
 fft_wrap_pw1pw2_80                9780 15.7    8.335   12.040  196.591  206.032
 fft3d_ps                         15354 16.2   80.111   93.256  150.970  189.409
 qs_vxc_create                      464 11.8    0.012    0.017  172.276  174.621
 xc_vxc_pw_create                   464 12.8    3.046    4.317  172.264  174.614
 xc_pw_derive                      5568 14.8    0.084    0.116  127.772  136.837
 mp_alltoall_z22v                 15354 18.2   47.622  120.922   47.622  120.922
 qs_rho_update_rho_low              465  9.1    0.003    0.003  108.605  108.673
 calculate_rho_elec                 930 10.1    1.252    1.335  108.602  108.670
 xc_pw_divergence                   928 13.8    0.042    0.065   85.673   92.759
 density_rs2pw                      930 11.1    0.039    0.045   79.729   92.630
 sum_up_and_integrate               464 11.8    0.015    0.019   92.453   92.528
 integrate_v_rspace                 928 12.8    0.034    0.044   91.797   91.912
 xc_rho_set_and_dset_create         464 13.8    2.893    4.940   80.513   84.111
 yz_to_x                           7464 16.8   10.539   12.617   35.097   73.480
 x_to_yz                           7890 17.6   12.357   15.181   35.421   59.281
 qs_scf_new_mos                     433  9.0    0.002    0.003   57.964   58.074
 qs_scf_loop_do_ot                  433 10.0    0.003    0.003   57.962   58.071
 ot_scf_mini                        433 11.0    0.009    0.010   54.791   54.894
 grid_integrate_task_list           928 13.8   20.176   53.227   20.176   53.227
 grid_collocate_task_list           930 11.1   24.624   52.335   24.624   52.335
 dbcsr_multiply_generic           18943 14.0    0.488    0.506   51.791   52.330
 transfer_rs2pw                    3752 12.0    0.036    0.043   38.104   49.990
 mp_waitany                       75580 15.4   35.755   48.318   35.755   48.318
 mp_alltoall_d11v                 18864 15.3   34.884   48.015   34.884   48.015
 rs_gather_matrices                 928 13.8    0.381    0.659   33.641   46.799
 transfer_rs2pw_80                  962 13.0    2.063    2.397   32.430   44.613
 potential_pw2rs                    928 13.8    0.221    0.261   37.881   38.260
 multiply_cannon                  18943 15.0    0.859    0.891   29.792   31.667
 pw_gather_p                       7464 15.8   24.304   28.791   24.304   28.791
 init_scf_loop                       33  8.0    0.001    0.001   27.697   27.699
 ot_mini                            433 12.0    0.003    0.003   27.488   27.628
 multiply_cannon_loop             18943 16.0    0.332    0.359   23.493   25.059
 qs_ks_update_qs_env_forces          31  6.0    0.000    0.000   23.448   23.455
 mp_waitall_1                    948441 18.1   12.496   20.771   12.496   20.771
 pw_scatter_p                      7890 16.6   15.918   19.929   15.918   19.929
 qs_ot_get_p                        932 11.9    0.005    0.006   18.621   18.933
 qs_ot_get_derivative               866 13.0    0.007    0.008   18.670   18.760
 multiply_cannon_multrec          75772 17.0   14.428   18.261   14.483   18.333
 make_m2s                         37886 15.0    0.260    0.277   15.404   16.469
 xc_functional_eval                 464 14.8    0.008    0.014   14.012   16.115
 pbe_lsd_eval                       464 15.8   14.004   16.109   14.004   16.109
 cp_fm_syevd                        734 14.2    0.003    0.004   15.793   15.845
 cp_fm_redistribute_end             734 15.2    7.787   15.423    7.807   15.441
 transfer_pw2rs                    3743 14.8    0.031    0.040   15.262   15.323
 cp_fm_syevd_base                   734 15.2    7.615   15.235    7.615   15.235
 qs_ot_p2m_diag                     611 13.0    0.113    0.168   14.436   14.504
 pw_derive                         6960 15.4   10.707   13.850   10.707   13.850
 make_images                      37886 16.0    2.616    4.403   12.035   13.810
 fft_wrap_pw1pw2_30                1858 14.4    0.237    0.347    7.842   13.421
 cp_dbcsr_syevd                     611 14.0    0.028    0.029   13.150   13.153
 init_scf_run                        32  7.0    0.000    0.000   11.406   11.407
 scf_env_initial_rho_setup           32  8.0    0.000    0.001   11.406   11.406
 wfi_extrapolate                     32  9.0    0.004    0.004   11.024   11.025
 mp_sum_d                         36030 14.9    4.391   10.667    4.391   10.667
 qs_ot_get_derivative_diag          599 14.0    0.015    0.016    9.681    9.761
 transfer_pw2rs_80                  959 15.6    3.756    4.370    8.938    9.722
 -------------------------------------------------------------------------------

 The number of warnings for this run is : 0
 
 -------------------------------------------------------------------------------
  **** **** ******  **  PROGRAM ENDED AT                 2026-06-19 18:17:41.986
 ***** ** ***  *** **   PROGRAM RAN ON             ip-172-31-89-158.ec2.internal
 **    ****   ******    PROGRAM RAN BY                                 <unknown>
 ***** **    ** ** **   PROGRAM PROCESS ID                                  5264
  **** **  *******  **  PROGRAM STOPPED IN /opt/cp2k_sanity/cp2k_adsorption_hete
                                           rogeneity
