 DBCSR| CPU Multiplication driver                                           BLAS (U)
 DBCSR| Multrec recursion limit                                              512 (U)
 DBCSR| Multiplication stack size                                           1000 (D)
 DBCSR| Maximum elements for images                                    UNLIMITED (U)
 DBCSR| Multiplicative factor virtual images                                   1 (U)
 DBCSR| Use multiplication densification                                       T (D)
 DBCSR| Multiplication size stacks                                             3 (U)
 DBCSR| Use memory pool for CPU allocation                                     F (U)
 DBCSR| Number of 3D layers                                               SINGLE (U)
 DBCSR| Use MPI memory allocation                                              F (U)
 DBCSR| Use RMA algorithm                                                      F (U)
 DBCSR| Use Communication thread                                               T (U)
 DBCSR| Communication thread load                                             83 (D)
 DBCSR| MPI: My process id                                                     0
 DBCSR| MPI: Number of processes                                              16
 DBCSR| OMP: Current number of threads                                         2
 DBCSR| OMP: Max number of threads                                             2
 DBCSR| Split modifier for TAS multiplication algorithm                  1.0E+00 (U)


  **** **** ******  **  PROGRAM STARTED AT               2026-06-19 19:14:06.576
 ***** ** ***  *** **   PROGRAM STARTED ON         ip-172-31-89-158.ec2.internal
 **    ****   ******    PROGRAM STARTED BY                             <unknown>
 ***** **    ** ** **   PROGRAM PROCESS ID                                  8648
  **** **  *******  **  PROGRAM STARTED IN /opt/cp2k_sanity/cp2k_adsorption_hete
                                           rogeneity

 CP2K| version string:                                       CP2K version 2026.1
 CP2K| source code revision number:                                      aceff1c
 CP2K| cp2kflags: omp libint fftw3 libxc parallel scalapack mpi_f08 cosma xsmm p
 CP2K|            lumed2 spglib sirius libtorch hdf5 trexio
 CP2K| is freely available from                            https://www.cp2k.org/
 CP2K| Program compiled at                                   2026-06-16 16:35:48
 CP2K| Program compiled on                                                      
 CP2K| Program compiled for                                               x86_64
 CP2K| Data directory path                  /opt/cp2k_sanity/env/share/cp2k/data
 CP2K| Input file name        cp2k_inputs/sanity/geo_opt/single_vacancy_sanity_b

 GLOBAL| Force Environment number                                              1
 GLOBAL| Basis set file name            /opt/cp2k_sanity/env/share/cp2k/data/BAS
 GLOBAL| Potential file name            /opt/cp2k_sanity/env/share/cp2k/data/GTH
 GLOBAL| MM Potential file name                                     MM_POTENTIAL
 GLOBAL| Coordinate file name                                      __STD_INPUT__
 GLOBAL| Method name                                                        CP2K
 GLOBAL| Project name                     single_vacancy_sanity_bs_smear_geo_opt
 GLOBAL| Run type                                                        GEO_OPT
 GLOBAL| FFT library                                                       FFTW3
 GLOBAL| Diagonalization library                                       ScaLAPACK
 GLOBAL| Cholesky decomposition library                                ScaLAPACK
 GLOBAL| DGEMM library                                                      BLAS
 GLOBAL| Orthonormality check for eigenvectors                          DISABLED
 GLOBAL| Matrix multiplication library                                     COSMA
 GLOBAL| All-to-all communication in single precision                          F
 GLOBAL| FFTs using library dependent lengths                                  F
 GLOBAL| Grid backend                                                       AUTO
 GLOBAL| Global print level                                                  LOW
 GLOBAL| MPI I/O enabled                                                       T
 GLOBAL| Total number of message passing processes                            16
 GLOBAL| Number of distributed systems (nodes)                                 1
 GLOBAL| Number of threads for this process                                    2
 GLOBAL| This output is from process                                           0
 GLOBAL| OpenMP stack size per thread (OMP_STACKSIZE)                    default
 GLOBAL| CPU model name                                            AMD EPYC 9R14
 GLOBAL| CPUID                                                              1003
 GLOBAL| Compiled for CPUID                                                 1002

 *** HINT in environment.F:960 :: The compiler target flags (x86_avx2)     ***
 *** used to build this binary cannot exploit all extensions of this CPU   ***
 *** model (x86_avx512). Consider compiler target flags as part of FCFLAGS ***
 *** and CFLAGS (ARCH file).                                               ***


 MEMORY| system memory details [Kb]
 MEMORY|                        rank 0           min           max       average
 MEMORY| MemTotal             64430560      64430560      64430560      64430560
 MEMORY| MemFree              56419120      56419120      56419120      56419120
 MEMORY| Buffers                  3172          3172          3172          3172
 MEMORY| Cached                4526288       4526288       4526288       4526288
 MEMORY| Slab                   307276        307276        307276        307276
 MEMORY| SReclaimable           120316        120316        120316        120316
 MEMORY| MemLikelyFree        61068896      61068896      61068896      61068896


 GENERATE|  Preliminary Number of Bonds generated:                             0
 GENERATE|  Achieved consistency in connectivity generation.

 *******************************************************************************
 *******************************************************************************
 **                                                                           **
 **     #####                         ##              ##                      **
 **    ##   ##            ##          ##              ##                      **
 **   ##     ##                       ##            ######                    **
 **   ##     ##  ##   ##  ##   #####  ##  ##   ####   ##    #####    #####    **
 **   ##     ##  ##   ##  ##  ##      ## ##   ##      ##   ##   ##  ##   ##   **
 **   ##  ## ##  ##   ##  ##  ##      ####     ###    ##   ######   ######    **
 **    ##  ###   ##   ##  ##  ##      ## ##      ##   ##   ##       ##        **
 **     #######   #####   ##   #####  ##  ##  ####    ##    #####   ##        **
 **           ##                                                    ##        **
 **                                                                           **
 **                                                ... make the atoms dance   **
 **                                                                           **
 **            Copyright (C) by CP2K developers group (2000-2026)             **
 **                      J. Chem. Phys. 152, 194103 (2020)                    **
 **                                                                           **
 *******************************************************************************


 TOTAL NUMBERS AND MAXIMUM NUMBERS

  Total number of            - Atomic kinds:                                   4
                             - Atoms:                                        145
                             - Shell sets:                                   145
                             - Shells:                                       725
                             - Primitive Cartesian functions:                725
                             - Cartesian basis functions:                   2030
                             - Spherical basis functions:                   1885

  Maximum angular momentum of- Orbital basis functions:                        2
                             - Local part of the GTH pseudopotential:          2
                             - Non-local part of the GTH pseudopotential:      4


 SCF PARAMETERS         Density guess:                                    ATOMIC
                        --------------------------------------------------------
                        max_scf:                                             500
                        max_scf_history:                                       0
                        max_diis:                                              4
                        --------------------------------------------------------
                        eps_scf:                                        5.00E-06
                        eps_scf_history:                                0.00E+00
                        eps_diis:                                       1.00E-01
                        eps_eigval:                                     1.00E-05
                        --------------------------------------------------------
                        level_shift [a.u.]:                             0.000000
                        added MOs                                        80   80
                        --------------------------------------------------------
                        Mixing method:                            BROYDEN_MIXING
                                                charge density mixing in g-space
                        --------------------------------------------------------
                        Smear method:                                FERMI_DIRAC
                        Electronic temperature [K]:                        500.0
                        Electronic temperature [a.u.]:                  1.58E-03
                        Accuracy threshold:                             1.00E-10
                        --------------------------------------------------------
                        Outer loop SCF in use 
                        No variables optimised in outer loop
                        eps_scf                                         1.00E-05
                        max_scf                                               20
                        No outer loop optimization
                        step_size                                       5.00E-01

 BFGS| Use rational function optimization for step estimation:                NO
 BFGS| Use model Hessian for initial guess:                                  YES
 BFGS| Restart Hessian:                                                       NO
 BFGS| Trust radius:                                                       0.472

 *******************************************************************************
 ***                     STARTING GEOMETRY OPTIMIZATION                      ***
 ***                                   BFGS                                  ***
 *******************************************************************************

 Extrapolation method: initial_guess

 Spin 1

 Number of electrons:                                                        294
 Number of occupied orbitals:                                                294
 Number of molecular orbitals:                                               374

 Spin 2

 Number of electrons:                                                        292
 Number of occupied orbitals:                                                292
 Number of molecular orbitals:                                               372

 Number of orbital functions:                                               1885
 Number of independent orbital functions:                                   1885


 SCF WAVEFUNCTION OPTIMIZATION

  Step     Update method      Time    Convergence         Total energy    Change
  ------------------------------------------------------------------------------
     1 NoMix/Diag. 0.20E+00    1.4     0.49239811      -832.4690435762 -8.32E+02
     2 Broy./Diag. 0.20E+00    1.5     0.36136350      -804.7515974464  2.77E+01
     3 Broy./Diag. 0.20E+00    1.5     0.33880576      -817.8005075381 -1.30E+01
     4 Broy./Diag. 0.20E+00    1.6     0.55713659      -835.8536384242 -1.81E+01
     5 Broy./Diag. 0.20E+00    1.5     0.32225990      -842.5001409603 -6.65E+00
     6 Broy./Diag. 0.20E+00    1.5     0.25850756      -841.3341766050  1.17E+00
     7 Broy./Diag. 0.20E+00    1.6     0.11013882      -840.0352287240  1.30E+00
     8 Broy./Diag. 0.20E+00    1.6     0.18932391      -838.5552411062  1.48E+00
     9 Broy./Diag. 0.20E+00    1.6     0.16490959      -837.8192944907  7.36E-01
    10 Broy./Diag. 0.20E+00    1.6     0.04431590      -837.6694705457  1.50E-01
    11 Broy./Diag. 0.20E+00    1.6     0.01730492      -837.5263860021  1.43E-01
    12 Broy./Diag. 0.20E+00    1.6     0.01675325      -837.5198113906  6.57E-03
    13 Broy./Diag. 0.20E+00    1.6     0.00912213      -837.4631590775  5.67E-02
    14 Broy./Diag. 0.20E+00    1.6     0.00410939      -837.4467983957  1.64E-02
    15 Broy./Diag. 0.20E+00    1.6     0.00603021      -837.4587936071 -1.20E-02
    16 Broy./Diag. 0.20E+00    1.6     0.00457122      -837.4912385197 -3.24E-02
    17 Broy./Diag. 0.20E+00    1.6     0.01252252      -837.5156651157 -2.44E-02
    18 Broy./Diag. 0.20E+00    1.6     0.00936022      -837.5172638249 -1.60E-03
    19 Broy./Diag. 0.20E+00    1.7     0.00861237      -837.5008948020  1.64E-02
    20 Broy./Diag. 0.20E+00    1.6     0.00662086      -837.4998233564  1.07E-03
    21 Broy./Diag. 0.20E+00    1.6     0.00357616      -837.4765016770  2.33E-02
    22 Broy./Diag. 0.20E+00    1.6     0.00610424      -837.4646683534  1.18E-02
    23 Broy./Diag. 0.20E+00    1.6     0.00359000      -837.4378584711  2.68E-02
    24 Broy./Diag. 0.20E+00    1.7     0.00771740      -837.4518900928 -1.40E-02
    25 Broy./Diag. 0.20E+00    1.7     0.00415343      -837.4424270282  9.46E-03
    26 Broy./Diag. 0.20E+00    1.7     0.00453183      -837.4342127598  8.21E-03
    27 Broy./Diag. 0.20E+00    1.7     0.00246379      -837.5159524339 -8.17E-02
    28 Broy./Diag. 0.20E+00    1.7     0.00371183      -837.6054866439 -8.95E-02
    29 Broy./Diag. 0.20E+00    1.7     0.00485061      -837.6294340659 -2.39E-02
    30 Broy./Diag. 0.20E+00    1.7     0.00316997      -837.6066086101  2.28E-02
    31 Broy./Diag. 0.20E+00    1.7     0.00160362      -837.5802357256  2.64E-02
    32 Broy./Diag. 0.20E+00    1.7     0.00079680      -837.5659237570  1.43E-02
    33 Broy./Diag. 0.20E+00    1.7     0.00157130      -837.5597858115  6.14E-03
    34 Broy./Diag. 0.20E+00    1.7     0.00433367      -837.5561202605  3.67E-03
    35 Broy./Diag. 0.20E+00    1.7     0.00189991      -837.5589877422 -2.87E-03
    36 Broy./Diag. 0.20E+00    1.7     0.00340671      -837.5620239713 -3.04E-03
    37 Broy./Diag. 0.20E+00    1.7     0.00031750      -837.5594570602  2.57E-03
    38 Broy./Diag. 0.20E+00    1.7     0.00130536      -837.5598356409 -3.79E-04
    39 Broy./Diag. 0.20E+00    1.8     0.00099304      -837.5610052541 -1.17E-03
    40 Broy./Diag. 0.20E+00    1.8     0.00075773      -837.5621446848 -1.14E-03
    41 Broy./Diag. 0.20E+00    1.8     0.00012332      -837.5623532216 -2.09E-04
    42 Broy./Diag. 0.20E+00    1.9     0.00049785      -837.5628048873 -4.52E-04
    43 Broy./Diag. 0.20E+00    2.0     0.00029565      -837.5632914036 -4.87E-04
    44 Broy./Diag. 0.20E+00    2.0     0.00037343      -837.5621068590  1.18E-03
    45 Broy./Diag. 0.20E+00    2.0     0.00022590      -837.5614955482  6.11E-04
    46 Broy./Diag. 0.20E+00    2.0     0.00033613      -837.5628038892 -1.31E-03
    47 Broy./Diag. 0.20E+00    2.0     0.00035203      -837.5630928782 -2.89E-04
    48 Broy./Diag. 0.20E+00    2.0     0.00020868      -837.5633082729 -2.15E-04
    49 Broy./Diag. 0.20E+00    2.0     0.00029796      -837.5633758920 -6.76E-05
    50 Broy./Diag. 0.20E+00    1.9     0.00013599      -837.5638121174 -4.36E-04
    51 Broy./Diag. 0.20E+00    1.9     0.00016945      -837.5649657055 -1.15E-03
    52 Broy./Diag. 0.20E+00    1.9     0.00011753      -837.5654712912 -5.06E-04
    53 Broy./Diag. 0.20E+00    1.9     0.00005851      -837.5651523199  3.19E-04
    54 Broy./Diag. 0.20E+00    1.9     0.00004236      -837.5650543749  9.79E-05
    55 Broy./Diag. 0.20E+00    1.9     0.00011193      -837.5651458670 -9.15E-05
    56 Broy./Diag. 0.20E+00    1.9     0.00022085      -837.5653207732 -1.75E-04
    57 Broy./Diag. 0.20E+00    1.9     0.00002279      -837.5652817584  3.90E-05
    58 Broy./Diag. 0.20E+00    1.9     0.00003985      -837.5653798022 -9.80E-05
    59 Broy./Diag. 0.20E+00    1.8     0.00005645      -837.5654558018 -7.60E-05
    60 Broy./Diag. 0.20E+00    1.8     0.00000780      -837.5653823816  7.34E-05
    61 Broy./Diag. 0.20E+00    1.8     0.00006068      -837.5653446566  3.77E-05
    62 Broy./Diag. 0.20E+00    1.8     0.00000526      -837.5653644168 -1.98E-05
    63 Broy./Diag. 0.20E+00    1.8     0.00001882      -837.5653471202  1.73E-05
    64 Broy./Diag. 0.20E+00    1.9     0.00000902      -837.5653232121  2.39E-05
    65 Broy./Diag. 0.20E+00    1.9     0.00000861      -837.5653245956 -1.38E-06
    66 Broy./Diag. 0.20E+00    1.8     0.00000814      -837.5653336182 -9.02E-06
    67 Broy./Diag. 0.20E+00    1.8     0.00001854      -837.5653401460 -6.53E-06
    68 Broy./Diag. 0.20E+00    1.8     0.00000172      -837.5653305750  9.57E-06

  *** SCF run converged in    68 steps ***


  Electronic density on regular grids:       -585.9999833490        0.0000166510
  Core density on regular grids:              585.9999999521       -0.0000000479
  Total charge density on r-space grids:        0.0000166031
  Total charge density g-space grids:           0.0000166031

  Overlap energy of the core charge distribution:               0.00002630253895
  Self energy of the core charge distribution:              -1956.27272208785394
  Core Hamiltonian energy:                                    608.69735449680434
  Hartree energy:                                             765.29478450741237
  Exchange-correlation energy:                               -254.79777092186188
  Dispersion energy:                                           -0.48300533067987
  Electronic entropic energy:                                  -0.00399744207993
  Fermi energy:                                                -0.11154796669377

  Total energy:                                              -837.56533057502952

  outer SCF iter =    1 RMS gradient =   0.17E-05 energy =       -837.5653305750
  outer SCF loop converged in   1 iterations or   68 steps


  Integrated spin density:                                          1.8831203512
  Integrated absolute spin density:                                 6.5891617379
  WARNING: S**2 computation does not yet treat fractional occupied orbitals

 ENERGY| Total FORCE_EVAL ( QS ) energy [hartree]           -837.565357346563474

 OPT| **************************************************************************
 OPT| Step number                                                              0
 OPT| Optimization method                                                   BFGS
 OPT| Total energy [hartree]                                     -837.5653573466
 OPT| Used time [s]                                                      119.431
 OPT| **************************************************************************
 OPT| Estimated peak process memory [MiB]                                    785

 --------------------------
 OPTIMIZATION STEP:      1
 --------------------------

 Extrapolation method: ASPC

 Spin 1

 Number of electrons:                                                        294
 Number of occupied orbitals:                                                298
 Number of molecular orbitals:                                               374

 Spin 2

 Number of electrons:                                                        292
 Number of occupied orbitals:                                                297
 Number of molecular orbitals:                                               372

 Number of orbital functions:                                               1885
 Number of independent orbital functions:                                   1885


 SCF WAVEFUNCTION OPTIMIZATION

  Step     Update method      Time    Convergence         Total energy    Change
  ------------------------------------------------------------------------------
     1 Broy./Diag. 0.20E+00    1.5     0.24091991      -837.5652955434 -8.38E+02
     2 Broy./Diag. 0.20E+00    1.6     0.25668349      -837.7929543399 -2.28E-01
     3 Broy./Diag. 0.20E+00    1.7     0.01114211      -837.5075663529  2.85E-01
     4 Broy./Diag. 0.20E+00    1.8     0.05870720      -837.5397680682 -3.22E-02
     5 Broy./Diag. 0.20E+00    1.8     0.00966098      -837.6042246783 -6.45E-02
     6 Broy./Diag. 0.20E+00    1.9     0.00785576      -837.5936143999  1.06E-02
     7 Broy./Diag. 0.20E+00    1.9     0.00633956      -837.5821809601  1.14E-02
     8 Broy./Diag. 0.20E+00    1.9     0.00107311      -837.5735144471  8.67E-03
     9 Broy./Diag. 0.20E+00    1.9     0.00125170      -837.5699988991  3.52E-03
    10 Broy./Diag. 0.20E+00    1.8     0.00020519      -837.5673882633  2.61E-03
    11 Broy./Diag. 0.20E+00    1.8     0.00086944      -837.5672114566  1.77E-04
    12 Broy./Diag. 0.20E+00    1.7     0.00087807      -837.5665750102  6.36E-04
    13 Broy./Diag. 0.20E+00    1.8     0.00035550      -837.5666582193 -8.32E-05
    14 Broy./Diag. 0.20E+00    1.9     0.00041899      -837.5664270747  2.31E-04
    15 Broy./Diag. 0.20E+00    1.8     0.00069603      -837.5665871489 -1.60E-04
    16 Broy./Diag. 0.20E+00    1.7     0.00045682      -837.5659045174  6.83E-04
    17 Broy./Diag. 0.20E+00    1.7     0.00033487      -837.5661431469 -2.39E-04
    18 Broy./Diag. 0.20E+00    1.8     0.00060456      -837.5659761137  1.67E-04
    19 Broy./Diag. 0.20E+00    1.8     0.00139321      -837.5655499381  4.26E-04
    20 Broy./Diag. 0.20E+00    1.7     0.00163645      -837.5663904387 -8.41E-04
    21 Broy./Diag. 0.20E+00    1.7     0.00150322      -837.5667022986 -3.12E-04
    22 Broy./Diag. 0.20E+00    1.7     0.00120089      -837.5671323429 -4.30E-04
    23 Broy./Diag. 0.20E+00    1.8     0.00051330      -837.5676744606 -5.42E-04
    24 Broy./Diag. 0.20E+00    1.8     0.00059633      -837.5679306853 -2.56E-04
    25 Broy./Diag. 0.20E+00    1.8     0.00013375      -837.5680365655 -1.06E-04
    26 Broy./Diag. 0.20E+00    1.9     0.00082735      -837.5679009825  1.36E-04
    27 Broy./Diag. 0.20E+00    1.9     0.00031753      -837.5675064352  3.95E-04
    28 Broy./Diag. 0.20E+00    1.9     0.00005256      -837.5676631899 -1.57E-04
    29 Broy./Diag. 0.20E+00    1.8     0.00076610      -837.5676293667  3.38E-05
    30 Broy./Diag. 0.20E+00    1.7     0.00091840      -837.5680556373 -4.26E-04
    31 Broy./Diag. 0.20E+00    1.8     0.00013454      -837.5676446247  4.11E-04
    32 Broy./Diag. 0.20E+00    1.7     0.00032166      -837.5675123384  1.32E-04
    33 Broy./Diag. 0.20E+00    1.7     0.00048674      -837.5670498017  4.63E-04
    34 Broy./Diag. 0.20E+00    1.7     0.00037497      -837.5665892641  4.61E-04
    35 Broy./Diag. 0.20E+00    1.7     0.00015147      -837.5662205855  3.69E-04
    36 Broy./Diag. 0.20E+00    1.7     0.00011744      -837.5660799373  1.41E-04
    37 Broy./Diag. 0.20E+00    1.7     0.00001977      -837.5659825146  9.74E-05
    38 Broy./Diag. 0.20E+00    1.7     0.00006761      -837.5659962274 -1.37E-05
    39 Broy./Diag. 0.20E+00    1.7     0.00013676      -837.5660392963 -4.31E-05
    40 Broy./Diag. 0.20E+00    1.7     0.00008630      -837.5659380877  1.01E-04
    41 Broy./Diag. 0.20E+00    1.7     0.00001842      -837.5659904576 -5.24E-05
    42 Broy./Diag. 0.20E+00    1.7     0.00007929      -837.5659699967  2.05E-05
    43 Broy./Diag. 0.20E+00    1.8     0.00003100      -837.5659571519  1.28E-05
    44 Broy./Diag. 0.20E+00    1.7     0.00005216      -837.5659537368  3.42E-06
    45 Broy./Diag. 0.20E+00    1.8     0.00040565      -837.5659187538  3.50E-05
    46 Broy./Diag. 0.20E+00    1.7     0.00011119      -837.5660931120 -1.74E-04
    47 Broy./Diag. 0.20E+00    1.8     0.00006539      -837.5659855777  1.08E-04
    48 Broy./Diag. 0.20E+00    1.7     0.00005050      -837.5659875865 -2.01E-06
    49 Broy./Diag. 0.20E+00    1.7     0.00002330      -837.5659774143  1.02E-05
    50 Broy./Diag. 0.20E+00    1.7     0.00005918      -837.5660007967 -2.34E-05
    51 Broy./Diag. 0.20E+00    1.7     0.00016151      -837.5660155380 -1.47E-05
    52 Broy./Diag. 0.20E+00    1.7     0.00002141      -837.5660818208 -6.63E-05
    53 Broy./Diag. 0.20E+00    1.7     0.00023454      -837.5660711357  1.07E-05
    54 Broy./Diag. 0.20E+00    1.7     0.00015834      -837.5661855419 -1.14E-04
    55 Broy./Diag. 0.20E+00    1.7     0.00073299      -837.5662310872 -4.55E-05
    56 Broy./Diag. 0.20E+00    1.7     0.00016607      -837.5665655904 -3.35E-04
    57 Broy./Diag. 0.20E+00    1.7     0.00017846      -837.5665083661  5.72E-05
    58 Broy./Diag. 0.20E+00    1.7     0.00007284      -837.5665839597 -7.56E-05
    59 Broy./Diag. 0.20E+00    1.7     0.00009072      -837.5665462340  3.77E-05
    60 Broy./Diag. 0.20E+00    1.7     0.00001116      -837.5666016864 -5.55E-05
    61 Broy./Diag. 0.20E+00    1.7     0.00001157      -837.5665999709  1.72E-06
    62 Broy./Diag. 0.20E+00    1.7     0.00003356      -837.5666080920 -8.12E-06
    63 Broy./Diag. 0.20E+00    1.7     0.00002074      -837.5665821945  2.59E-05
    64 Broy./Diag. 0.20E+00    1.7     0.00004356      -837.5665563944  2.58E-05
    65 Broy./Diag. 0.20E+00    1.7     0.00002833      -837.5665693041 -1.29E-05
    66 Broy./Diag. 0.20E+00    1.8     0.00002764      -837.5665618030  7.50E-06
    67 Broy./Diag. 0.20E+00    1.7     0.00021840      -837.5665678213 -6.02E-06
    68 Broy./Diag. 0.20E+00    1.8     0.00002719      -837.5663459323  2.22E-04
    69 Broy./Diag. 0.20E+00    1.7     0.00000230      -837.5663190128  2.69E-05

  *** SCF run converged in    69 steps ***


  Electronic density on regular grids:       -585.9999833491        0.0000166509
  Core density on regular grids:              585.9999999520       -0.0000000480
  Total charge density on r-space grids:        0.0000166028
  Total charge density g-space grids:           0.0000166028

  Overlap energy of the core charge distribution:               0.00002630210809
  Self energy of the core charge distribution:              -1956.27272208785394
  Core Hamiltonian energy:                                    608.66035503230671
  Hartree energy:                                             765.31368741738015
  Exchange-correlation energy:                               -254.78066527202998
  Dispersion energy:                                           -0.48277937812121
  Electronic entropic energy:                                  -0.00422101915934
  Fermi energy:                                                -0.11238814270676

  Total energy:                                              -837.56631901276330

  outer SCF iter =    1 RMS gradient =   0.23E-05 energy =       -837.5663190128
  outer SCF loop converged in   1 iterations or   69 steps


  Integrated spin density:                                          1.9127257389
  Integrated absolute spin density:                                 6.5867833458
  WARNING: S**2 computation does not yet treat fractional occupied orbitals

 ENERGY| Total FORCE_EVAL ( QS ) energy [hartree]           -837.565925201829259

 OPT| **************************************************************************
 OPT| Step number                                                              1
 OPT| Optimization method                                                   BFGS
 OPT| Total energy [hartree]                                     -837.5659252018
 OPT| Effective energy change [hartree]                            -0.0005678553
 OPT| Predicted energy change [hartree]                            -0.0004839781
 OPT| Scaling factor                                                0.0000000000
 OPT| Step size                                                     0.0538666660
 OPT| Trust radius                                                  0.4724315332
 OPT| Decrease in energy                                                     YES
 OPT| Used time [s]                                                      122.059
 OPT|
 OPT| Maximum step size                                             0.0538666660
 OPT| Convergence limit for maximum step size                       0.0030000000
 OPT| Maximum step size is converged                                          NO
 OPT|
 OPT| RMS step size                                                 0.0047171886
 OPT| Convergence limit for RMS step size                           0.0015000000
 OPT| RMS step size is converged                                              NO
 OPT|
 OPT| Maximum gradient                                              0.0038751419
 OPT| Convergence limit for maximum gradient                        0.0008000000
 OPT| Maximum gradient is converged                                           NO
 OPT|
 OPT| RMS gradient                                                  0.0002752733
 OPT| Convergence limit for RMS gradient                            0.0003000000
 OPT| RMS gradient is converged                                              YES
 OPT| **************************************************************************
 OPT| Estimated peak process memory after this step [MiB]                    871

 --------------------------
 OPTIMIZATION STEP:      2
 --------------------------

 Extrapolation method: ASPC

 Spin 1

 Number of electrons:                                                        294
 Number of occupied orbitals:                                                298
 Number of molecular orbitals:                                               374

 Spin 2

 Number of electrons:                                                        292
 Number of occupied orbitals:                                                297
 Number of molecular orbitals:                                               372

 Number of orbital functions:                                               1885
 Number of independent orbital functions:                                   1885


 SCF WAVEFUNCTION OPTIMIZATION

  Step     Update method      Time    Convergence         Total energy    Change
  ------------------------------------------------------------------------------
     1 Broy./Diag. 0.20E+00    1.4     0.17672163      -837.5661871919 -8.38E+02
     2 Broy./Diag. 0.20E+00    1.6     0.20532538      -837.7008692682 -1.35E-01
     3 Broy./Diag. 0.20E+00    1.6     0.01702822      -837.5222544108  1.79E-01
     4 Broy./Diag. 0.20E+00    1.6     0.04252494      -837.5476850514 -2.54E-02
     5 Broy./Diag. 0.20E+00    1.6     0.01773864      -837.5854152199 -3.77E-02
     6 Broy./Diag. 0.20E+00    1.6     0.00348047      -837.5703358574  1.51E-02
     7 Broy./Diag. 0.20E+00    1.7     0.00234368      -837.5676735553  2.66E-03
     8 Broy./Diag. 0.20E+00    1.7     0.00183705      -837.5663303302  1.34E-03
     9 Broy./Diag. 0.20E+00    1.7     0.00021299      -837.5680156196 -1.69E-03
    10 Broy./Diag. 0.20E+00    1.7     0.00125659      -837.5678594488  1.56E-04
    11 Broy./Diag. 0.20E+00    1.7     0.00037172      -837.5667998211  1.06E-03
    12 Broy./Diag. 0.20E+00    1.7     0.00007967      -837.5666812455  1.19E-04
    13 Broy./Diag. 0.20E+00    1.7     0.00022444      -837.5667222114 -4.10E-05
    14 Broy./Diag. 0.20E+00    1.7     0.00009804      -837.5664618938  2.60E-04
    15 Broy./Diag. 0.20E+00    1.7     0.00023576      -837.5664200479  4.18E-05
    16 Broy./Diag. 0.20E+00    1.7     0.00015746      -837.5665298950 -1.10E-04
    17 Broy./Diag. 0.20E+00    1.7     0.00002457      -837.5664676774  6.22E-05
    18 Broy./Diag. 0.20E+00    1.7     0.00029538      -837.5664707005 -3.02E-06
    19 Broy./Diag. 0.20E+00    1.7     0.00017193      -837.5665720999 -1.01E-04
    20 Broy./Diag. 0.20E+00    1.7     0.00007918      -837.5664752273  9.69E-05
    21 Broy./Diag. 0.20E+00    1.7     0.00010663      -837.5664069863  6.82E-05
    22 Broy./Diag. 0.20E+00    1.7     0.00007582      -837.5664335679 -2.66E-05
    23 Broy./Diag. 0.20E+00    1.7     0.00015898      -837.5663750129  5.86E-05
    24 Broy./Diag. 0.20E+00    1.7     0.00005195      -837.5664778906 -1.03E-04
    25 Broy./Diag. 0.20E+00    1.7     0.00006045      -837.5664276207  5.03E-05
    26 Broy./Diag. 0.20E+00    1.7     0.00000580      -837.5663794465  4.82E-05
    27 Broy./Diag. 0.20E+00    1.7     0.00002943      -837.5663718937  7.55E-06
    28 Broy./Diag. 0.20E+00    1.7     0.00001148      -837.5663897215 -1.78E-05
    29 Broy./Diag. 0.20E+00    1.8     0.00003045      -837.5663950079 -5.29E-06
    30 Broy./Diag. 0.20E+00    1.7     0.00001501      -837.5664054823 -1.05E-05
    31 Broy./Diag. 0.20E+00    1.7     0.00000911      -837.5663937920  1.17E-05
    32 Broy./Diag. 0.20E+00    1.7     0.00000955      -837.5663979747 -4.18E-06
    33 Broy./Diag. 0.20E+00    1.7     0.00001065      -837.5663982690 -2.94E-07
    34 Broy./Diag. 0.20E+00    1.7     0.00000182      -837.5663927178  5.55E-06

  *** SCF run converged in    34 steps ***


  Electronic density on regular grids:       -585.9999833493        0.0000166507
  Core density on regular grids:              585.9999999520       -0.0000000480
  Total charge density on r-space grids:        0.0000166027
  Total charge density g-space grids:           0.0000166027

  Overlap energy of the core charge distribution:               0.00002630206092
  Self energy of the core charge distribution:              -1956.27272208785394
  Core Hamiltonian energy:                                    608.64997005453074
  Hartree energy:                                             765.31860367980232
  Exchange-correlation energy:                               -254.77557614785326
  Dispersion energy:                                           -0.48242210810856
  Electronic entropic energy:                                  -0.00427240247765
  Fermi energy:                                                -0.11256502056508

  Total energy:                                              -837.56639271780944

  outer SCF iter =    1 RMS gradient =   0.18E-05 energy =       -837.5663927178
  outer SCF loop converged in   1 iterations or   34 steps


  Integrated spin density:                                          1.9258499686
  Integrated absolute spin density:                                 6.6118466387
  WARNING: S**2 computation does not yet treat fractional occupied orbitals

 ENERGY| Total FORCE_EVAL ( QS ) energy [hartree]           -837.566390459183481

 OPT| **************************************************************************
 OPT| Step number                                                              2
 OPT| Optimization method                                                   BFGS
 OPT| Total energy [hartree]                                     -837.5663904592
 OPT| Effective energy change [hartree]                            -0.0004652574
 OPT| Predicted energy change [hartree]                            -0.0002635395
 OPT| Scaling factor                                                0.0000000000
 OPT| Step size                                                     0.0710509888
 OPT| Trust radius                                                  0.4724315332
 OPT| Decrease in energy                                                     YES
 OPT| Used time [s]                                                       58.253
 OPT|
 OPT| Maximum step size                                             0.0710509888
 OPT| Convergence limit for maximum step size                       0.0030000000
 OPT| Maximum step size is converged                                          NO
 OPT|
 OPT| RMS step size                                                 0.0048766370
 OPT| Convergence limit for RMS step size                           0.0015000000
 OPT| RMS step size is converged                                              NO
 OPT|
 OPT| Maximum gradient                                              0.0032060543
 OPT| Convergence limit for maximum gradient                        0.0008000000
 OPT| Maximum gradient is converged                                           NO
 OPT|
 OPT| RMS gradient                                                  0.0002693285
 OPT| Convergence limit for RMS gradient                            0.0003000000
 OPT| RMS gradient is converged                                              YES
 OPT| **************************************************************************
 OPT| Estimated peak process memory after this step [MiB]                    914

 --------------------------
 OPTIMIZATION STEP:      3
 --------------------------

 Extrapolation method: ASPC

 Spin 1

 Number of electrons:                                                        294
 Number of occupied orbitals:                                                298
 Number of molecular orbitals:                                               374

 Spin 2

 Number of electrons:                                                        292
 Number of occupied orbitals:                                                297
 Number of molecular orbitals:                                               372

 Number of orbital functions:                                               1885
 Number of independent orbital functions:                                   1885


 SCF WAVEFUNCTION OPTIMIZATION

  Step     Update method      Time    Convergence         Total energy    Change
  ------------------------------------------------------------------------------
     1 Broy./Diag. 0.20E+00    1.4     0.01503282      -837.5671507888 -8.38E+02
     2 Broy./Diag. 0.20E+00    1.6     0.00697942      -837.5462545263  2.09E-02
     3 Broy./Diag. 0.20E+00    1.6     0.00065594      -837.5490213528 -2.77E-03
     4 Broy./Diag. 0.20E+00    1.6     0.00088978      -837.5587941192 -9.77E-03
     5 Broy./Diag. 0.20E+00    1.6     0.00061829      -837.5654320623 -6.64E-03
     6 Broy./Diag. 0.20E+00    1.6     0.00036325      -837.5685920083 -3.16E-03
     7 Broy./Diag. 0.20E+00    1.6     0.00026527      -837.5690938174 -5.02E-04
     8 Broy./Diag. 0.20E+00    1.7     0.00020289      -837.5691166092 -2.28E-05
     9 Broy./Diag. 0.20E+00    1.7     0.00017980      -837.5685702885  5.46E-04
    10 Broy./Diag. 0.20E+00    1.7     0.00011872      -837.5680905911  4.80E-04
    11 Broy./Diag. 0.20E+00    1.7     0.00003008      -837.5679403760  1.50E-04
    12 Broy./Diag. 0.20E+00    1.7     0.00019048      -837.5680221522 -8.18E-05
    13 Broy./Diag. 0.20E+00    1.8     0.00006551      -837.5678679920  1.54E-04
    14 Broy./Diag. 0.20E+00    1.7     0.00005937      -837.5679745065 -1.07E-04
    15 Broy./Diag. 0.20E+00    1.7     0.00005790      -837.5679028719  7.16E-05
    16 Broy./Diag. 0.20E+00    1.7     0.00005060      -837.5677113163  1.92E-04
    17 Broy./Diag. 0.20E+00    1.7     0.00006538      -837.5676270743  8.42E-05
    18 Broy./Diag. 0.20E+00    1.7     0.00004248      -837.5676699601 -4.29E-05
    19 Broy./Diag. 0.20E+00    1.7     0.00003655      -837.5676224169  4.75E-05
    20 Broy./Diag. 0.20E+00    1.7     0.00002955      -837.5676501594 -2.77E-05
    21 Broy./Diag. 0.20E+00    1.7     0.00000848      -837.5676183513  3.18E-05
    22 Broy./Diag. 0.20E+00    1.7     0.00000957      -837.5676099695  8.38E-06
    23 Broy./Diag. 0.20E+00    1.7     0.00001358      -837.5676081620  1.81E-06
    24 Broy./Diag. 0.20E+00    1.7     0.00000979      -837.5675951944  1.30E-05
    25 Broy./Diag. 0.20E+00    1.7     0.00000319      -837.5676073336 -1.21E-05

  *** SCF run converged in    25 steps ***


  Electronic density on regular grids:       -585.9999833498        0.0000166502
  Core density on regular grids:              585.9999999520       -0.0000000480
  Total charge density on r-space grids:        0.0000166021
  Total charge density g-space grids:           0.0000166021

  Overlap energy of the core charge distribution:               0.00002630205108
  Self energy of the core charge distribution:              -1956.27272208785394
  Core Hamiltonian energy:                                    608.63399620182270
  Hartree energy:                                             765.32421122405185
  Exchange-correlation energy:                               -254.76785533801475
  Dispersion energy:                                           -0.48093483104897
  Electronic entropic energy:                                  -0.00432881893423
  Fermi energy:                                                -0.11260869988069

  Total energy:                                              -837.56760733357737

  outer SCF iter =    1 RMS gradient =   0.32E-05 energy =       -837.5676073336
  outer SCF loop converged in   1 iterations or   25 steps


  Integrated spin density:                                          1.9348689024
  Integrated absolute spin density:                                 6.6878113036
  WARNING: S**2 computation does not yet treat fractional occupied orbitals

 ENERGY| Total FORCE_EVAL ( QS ) energy [hartree]           -837.567602369301653

 OPT| **************************************************************************
 OPT| Step number                                                              3
 OPT| Optimization method                                                   BFGS
 OPT| Total energy [hartree]                                     -837.5676023693
 OPT| Effective energy change [hartree]                            -0.0012119101
 OPT| Predicted energy change [hartree]                            -0.0009542049
 OPT| Scaling factor                                                0.0000000000
 OPT| Step size                                                     0.2986614054
 OPT| Trust radius                                                  0.4724315332
 OPT| Decrease in energy                                                     YES
 OPT| Used time [s]                                                       43.129
 OPT|
 OPT| Maximum step size                                             0.2986614054
 OPT| Convergence limit for maximum step size                       0.0030000000
 OPT| Maximum step size is converged                                          NO
 OPT|
 OPT| RMS step size                                                 0.0202834742
 OPT| Convergence limit for RMS step size                           0.0015000000
 OPT| RMS step size is converged                                              NO
 OPT|
 OPT| Maximum gradient                                              0.0027805322
 OPT| Convergence limit for maximum gradient                        0.0008000000
 OPT| Maximum gradient is converged                                           NO
 OPT|
 OPT| RMS gradient                                                  0.0001961684
 OPT| Convergence limit for RMS gradient                            0.0003000000
 OPT| RMS gradient is converged                                              YES
 OPT| **************************************************************************
 OPT| Estimated peak process memory after this step [MiB]                    960

 --------------------------
 OPTIMIZATION STEP:      4
 --------------------------

 Extrapolation method: ASPC

 Spin 1

 Number of electrons:                                                        294
 Number of occupied orbitals:                                                298
 Number of molecular orbitals:                                               374

 Spin 2

 Number of electrons:                                                        292
 Number of occupied orbitals:                                                297
 Number of molecular orbitals:                                               372

 Number of orbital functions:                                               1885
 Number of independent orbital functions:                                   1885


 SCF WAVEFUNCTION OPTIMIZATION

  Step     Update method      Time    Convergence         Total energy    Change
  ------------------------------------------------------------------------------
     1 Broy./Diag. 0.20E+00    1.4     0.04601781      -837.5675191470 -8.38E+02
     2 Broy./Diag. 0.20E+00    1.6     0.01935464      -837.5604996682  7.02E-03
     3 Broy./Diag. 0.20E+00    1.6     0.01659557      -837.5705214171 -1.00E-02
     4 Broy./Diag. 0.20E+00    1.6     0.00751854      -837.5786126834 -8.09E-03
     5 Broy./Diag. 0.20E+00    1.6     0.00267337      -837.5663533604  1.23E-02
     6 Broy./Diag. 0.20E+00    1.6     0.00033772      -837.5648299115  1.52E-03
     7 Broy./Diag. 0.20E+00    1.7     0.00153786      -837.5639879011  8.42E-04
     8 Broy./Diag. 0.20E+00    1.7     0.00058420      -837.5657879239 -1.80E-03
     9 Broy./Diag. 0.20E+00    1.7     0.00024448      -837.5659755688 -1.88E-04
    10 Broy./Diag. 0.20E+00    1.7     0.00075256      -837.5669708018 -9.95E-04
    11 Broy./Diag. 0.20E+00    1.7     0.00094828      -837.5683283328 -1.36E-03
    12 Broy./Diag. 0.20E+00    1.7     0.00034269      -837.5676888092  6.40E-04
    13 Broy./Diag. 0.20E+00    1.7     0.00042285      -837.5676418316  4.70E-05
    14 Broy./Diag. 0.20E+00    1.7     0.00065548      -837.5675368846  1.05E-04
    15 Broy./Diag. 0.20E+00    1.7     0.00072350      -837.5680082646 -4.71E-04
    16 Broy./Diag. 0.20E+00    1.7     0.00037420      -837.5674410739  5.67E-04
    17 Broy./Diag. 0.20E+00    1.7     0.00016235      -837.5673877981  5.33E-05
    18 Broy./Diag. 0.20E+00    1.7     0.00002622      -837.5676836211 -2.96E-04
    19 Broy./Diag. 0.20E+00    1.7     0.00008986      -837.5677848705 -1.01E-04
    20 Broy./Diag. 0.20E+00    1.7     0.00018795      -837.5678119316 -2.71E-05
    21 Broy./Diag. 0.20E+00    1.7     0.00009237      -837.5677150100  9.69E-05
    22 Broy./Diag. 0.20E+00    1.7     0.00005501      -837.5677762293 -6.12E-05
    23 Broy./Diag. 0.20E+00    1.7     0.00005709      -837.5678117736 -3.55E-05
    24 Broy./Diag. 0.20E+00    1.7     0.00012831      -837.5677613465  5.04E-05
    25 Broy./Diag. 0.20E+00    1.8     0.00005885      -837.5677134823  4.79E-05
    26 Broy./Diag. 0.20E+00    1.7     0.00003891      -837.5677552248 -4.17E-05
    27 Broy./Diag. 0.20E+00    1.7     0.00003637      -837.5678005386 -4.53E-05
    28 Broy./Diag. 0.20E+00    1.7     0.00000859      -837.5677810544  1.95E-05
    29 Broy./Diag. 0.20E+00    1.7     0.00000255      -837.5677967082 -1.57E-05

  *** SCF run converged in    29 steps ***


  Electronic density on regular grids:       -585.9999833498        0.0000166502
  Core density on regular grids:              585.9999999520       -0.0000000480
  Total charge density on r-space grids:        0.0000166022
  Total charge density g-space grids:           0.0000166022

  Overlap energy of the core charge distribution:               0.00002630212564
  Self energy of the core charge distribution:              -1956.27272208785394
  Core Hamiltonian energy:                                    608.63916555349635
  Hartree energy:                                             765.32054822819339
  Exchange-correlation energy:                               -254.77018233274066
  Dispersion energy:                                           -0.48034368725679
  Electronic entropic energy:                                  -0.00428874544467
  Fermi energy:                                                -0.11230988241620

  Total energy:                                              -837.56779670819287

  outer SCF iter =    1 RMS gradient =   0.26E-05 energy =       -837.5677967082
  outer SCF loop converged in   1 iterations or   29 steps


  Integrated spin density:                                          1.9144244800
  Integrated absolute spin density:                                 6.6914901542
  WARNING: S**2 computation does not yet treat fractional occupied orbitals

 ENERGY| Total FORCE_EVAL ( QS ) energy [hartree]           -837.567802908554654

 OPT| **************************************************************************
 OPT| Step number                                                              4
 OPT| Optimization method                                                   BFGS
 OPT| Total energy [hartree]                                     -837.5678029086
 OPT| Effective energy change [hartree]                            -0.0002005393
 OPT| Predicted energy change [hartree]                            -0.0001584136
 OPT| Scaling factor                                                0.0000000000
 OPT| Step size                                                     0.1215781706
 OPT| Trust radius                                                  0.4724315332
 OPT| Decrease in energy                                                     YES
 OPT| Used time [s]                                                       49.895
 OPT|
 OPT| Maximum step size                                             0.1215781706
 OPT| Convergence limit for maximum step size                       0.0030000000
 OPT| Maximum step size is converged                                          NO
 OPT|
 OPT| RMS step size                                                 0.0083366425
 OPT| Convergence limit for RMS step size                           0.0015000000
 OPT| RMS step size is converged                                              NO
 OPT|
 OPT| Maximum gradient                                              0.0011594782
 OPT| Convergence limit for maximum gradient                        0.0008000000
 OPT| Maximum gradient is converged                                           NO
 OPT|
 OPT| RMS gradient                                                  0.0000781971
 OPT| Convergence limit for RMS gradient                            0.0003000000
 OPT| RMS gradient is converged                                              YES
 OPT| **************************************************************************
 OPT| Estimated peak process memory after this step [MiB]                   1008

 --------------------------
 OPTIMIZATION STEP:      5
 --------------------------

 Extrapolation method: ASPC

 Spin 1

 Number of electrons:                                                        294
 Number of occupied orbitals:                                                298
 Number of molecular orbitals:                                               374

 Spin 2

 Number of electrons:                                                        292
 Number of occupied orbitals:                                                297
 Number of molecular orbitals:                                               372

 Number of orbital functions:                                               1885
 Number of independent orbital functions:                                   1885


 SCF WAVEFUNCTION OPTIMIZATION

  Step     Update method      Time    Convergence         Total energy    Change
  ------------------------------------------------------------------------------
     1 Broy./Diag. 0.20E+00    1.4     0.04414377      -837.5676776433 -8.38E+02
     2 Broy./Diag. 0.20E+00    1.6     0.01438324      -837.5136336825  5.40E-02
     3 Broy./Diag. 0.20E+00    1.6     0.03440950      -837.5411034571 -2.75E-02
     4 Broy./Diag. 0.20E+00    1.7     0.01728643      -837.5720322374 -3.09E-02
     5 Broy./Diag. 0.20E+00    1.6     0.00441414      -837.5584538055  1.36E-02
     6 Broy./Diag. 0.20E+00    1.6     0.00376085      -837.5646770118 -6.22E-03
     7 Broy./Diag. 0.20E+00    1.7     0.00131184      -837.5626326444  2.04E-03
     8 Broy./Diag. 0.20E+00    1.7     0.00240680      -837.5644541932 -1.82E-03
     9 Broy./Diag. 0.20E+00    1.7     0.00123063      -837.5667480205 -2.29E-03
    10 Broy./Diag. 0.20E+00    1.7     0.00127647      -837.5672707252 -5.23E-04
    11 Broy./Diag. 0.20E+00    1.7     0.00016069      -837.5678262317 -5.56E-04
    12 Broy./Diag. 0.20E+00    1.7     0.00005729      -837.5676316803  1.95E-04
    13 Broy./Diag. 0.20E+00    1.7     0.00038274      -837.5679387147 -3.07E-04
    14 Broy./Diag. 0.20E+00    1.7     0.00024356      -837.5678296418  1.09E-04
    15 Broy./Diag. 0.20E+00    1.7     0.00016027      -837.5680315830 -2.02E-04
    16 Broy./Diag. 0.20E+00    1.7     0.00023875      -837.5679763406  5.52E-05
    17 Broy./Diag. 0.20E+00    1.7     0.00001419      -837.5675956517  3.81E-04
    18 Broy./Diag. 0.20E+00    1.8     0.00006608      -837.5675944051  1.25E-06
    19 Broy./Diag. 0.20E+00    1.7     0.00001903      -837.5677553596 -1.61E-04
    20 Broy./Diag. 0.20E+00    1.7     0.00001716      -837.5678384371 -8.31E-05
    21 Broy./Diag. 0.20E+00    1.7     0.00002332      -837.5678623674 -2.39E-05
    22 Broy./Diag. 0.20E+00    1.7     0.00001845      -837.5678559670  6.40E-06
    23 Broy./Diag. 0.20E+00    1.7     0.00002470      -837.5678379969  1.80E-05
    24 Broy./Diag. 0.20E+00    1.7     0.00003597      -837.5678171139  2.09E-05
    25 Broy./Diag. 0.20E+00    1.7     0.00002218      -837.5678336702 -1.66E-05
    26 Broy./Diag. 0.20E+00    1.7     0.00006811      -837.5678109199  2.28E-05
    27 Broy./Diag. 0.20E+00    1.7     0.00045287      -837.5677934020  1.75E-05
    28 Broy./Diag. 0.20E+00    1.7     0.00058301      -837.5676236162  1.70E-04
    29 Broy./Diag. 0.20E+00    1.7     0.00012057      -837.5678634393 -2.40E-04
    30 Broy./Diag. 0.20E+00    1.7     0.00082919      -837.5678127608  5.07E-05
    31 Broy./Diag. 0.20E+00    1.7     0.00008666      -837.5675020114  3.11E-04
    32 Broy./Diag. 0.20E+00    1.7     0.00032003      -837.5674848000  1.72E-05
    33 Broy./Diag. 0.20E+00    1.7     0.00051336      -837.5673560429  1.29E-04
    34 Broy./Diag. 0.20E+00    1.7     0.00014409      -837.5675446618 -1.89E-04
    35 Broy./Diag. 0.20E+00    1.7     0.00011658      -837.5674804523  6.42E-05
    36 Broy./Diag. 0.20E+00    1.7     0.00003941      -837.5674445696  3.59E-05
    37 Broy./Diag. 0.20E+00    1.7     0.00020804      -837.5674650444 -2.05E-05
    38 Broy./Diag. 0.20E+00    1.7     0.00026366      -837.5673918728  7.32E-05
    39 Broy./Diag. 0.20E+00    1.7     0.00008113      -837.5672942046  9.77E-05
    40 Broy./Diag. 0.20E+00    1.7     0.00003024      -837.5672703256  2.39E-05
    41 Broy./Diag. 0.20E+00    1.7     0.00023518      -837.5672824408 -1.21E-05
    42 Broy./Diag. 0.20E+00    1.7     0.00017019      -837.5671783508  1.04E-04
    43 Broy./Diag. 0.20E+00    1.7     0.00006497      -837.5672422286 -6.39E-05
    44 Broy./Diag. 0.20E+00    1.7     0.00009723      -837.5672127625  2.95E-05
    45 Broy./Diag. 0.20E+00    1.7     0.00004535      -837.5672673922 -5.46E-05
    46 Broy./Diag. 0.20E+00    1.7     0.00005690      -837.5672977735 -3.04E-05
    47 Broy./Diag. 0.20E+00    1.7     0.00009022      -837.5673036587 -5.89E-06
    48 Broy./Diag. 0.20E+00    1.7     0.00010133      -837.5672415041  6.22E-05
    49 Broy./Diag. 0.20E+00    1.7     0.00008147      -837.5672937793 -5.23E-05
    50 Broy./Diag. 0.20E+00    1.7     0.00003479      -837.5673730554 -7.93E-05
    51 Broy./Diag. 0.20E+00    1.7     0.00010029      -837.5674177486 -4.47E-05
    52 Broy./Diag. 0.20E+00    1.7     0.00015809      -837.5675214992 -1.04E-04
    53 Broy./Diag. 0.20E+00    1.7     0.00001972      -837.5676714240 -1.50E-04
    54 Broy./Diag. 0.20E+00    1.7     0.00008622      -837.5676972510 -2.58E-05
    55 Broy./Diag. 0.20E+00    1.7     0.00001443      -837.5677821922 -8.49E-05
    56 Broy./Diag. 0.20E+00    1.7     0.00004701      -837.5677929557 -1.08E-05
    57 Broy./Diag. 0.20E+00    1.7     0.00001426      -837.5678223639 -2.94E-05
    58 Broy./Diag. 0.20E+00    1.7     0.00000639      -837.5678109160  1.14E-05
    59 Broy./Diag. 0.20E+00    1.7     0.00001289      -837.5678197540 -8.84E-06
    60 Broy./Diag. 0.20E+00    1.7     0.00001680      -837.5678185571  1.20E-06
    61 Broy./Diag. 0.20E+00    1.7     0.00003730      -837.5678248027 -6.25E-06
    62 Broy./Diag. 0.20E+00    1.7     0.00001359      -837.5678459514 -2.11E-05
    63 Broy./Diag. 0.20E+00    1.7     0.00004465      -837.5678430841  2.87E-06
    64 Broy./Diag. 0.20E+00    1.7     0.00002163      -837.5678168814  2.62E-05
    65 Broy./Diag. 0.20E+00    1.7     0.00004916      -837.5678289799 -1.21E-05
    66 Broy./Diag. 0.20E+00    1.7     0.00000863      -837.5678081100  2.09E-05
    67 Broy./Diag. 0.20E+00    1.7     0.00008187      -837.5678132765 -5.17E-06
    68 Broy./Diag. 0.20E+00    1.7     0.00008564      -837.5677892968  2.40E-05
    69 Broy./Diag. 0.20E+00    1.7     0.00033965      -837.5677658942  2.34E-05
    70 Broy./Diag. 0.20E+00    1.7     0.00004295      -837.5676494889  1.16E-04
    71 Broy./Diag. 0.20E+00    1.7     0.00009263      -837.5676565760 -7.09E-06
    72 Broy./Diag. 0.20E+00    1.7     0.00024339      -837.5676215412  3.50E-05
    73 Broy./Diag. 0.20E+00    1.7     0.00014411      -837.5677060741 -8.45E-05
    74 Broy./Diag. 0.20E+00    1.8     0.00000699      -837.5676288099  7.73E-05
    75 Broy./Diag. 0.20E+00    1.7     0.00005368      -837.5676204374  8.37E-06
    76 Broy./Diag. 0.20E+00    1.7     0.00000986      -837.5676007871  1.97E-05
    77 Broy./Diag. 0.20E+00    1.7     0.00002021      -837.5676141182 -1.33E-05
    78 Broy./Diag. 0.20E+00    1.7     0.00003258      -837.5676401960 -2.61E-05
    79 Broy./Diag. 0.20E+00    1.7     0.00004117      -837.5676612481 -2.11E-05
    80 Broy./Diag. 0.20E+00    1.7     0.00000909      -837.5676632712 -2.02E-06
    81 Broy./Diag. 0.20E+00    1.7     0.00012263      -837.5676553266  7.94E-06
    82 Broy./Diag. 0.20E+00    1.7     0.00006941      -837.5677375331 -8.22E-05
    83 Broy./Diag. 0.20E+00    1.7     0.00002343      -837.5677065080  3.10E-05
    84 Broy./Diag. 0.20E+00    1.7     0.00004555      -837.5677405752 -3.41E-05
    85 Broy./Diag. 0.20E+00    1.7     0.00000075      -837.5677762347 -3.57E-05

  *** SCF run converged in    85 steps ***


  Electronic density on regular grids:       -585.9999833498        0.0000166502
  Core density on regular grids:              585.9999999520       -0.0000000480
  Total charge density on r-space grids:        0.0000166021
  Total charge density g-space grids:           0.0000166021

  Overlap energy of the core charge distribution:               0.00002630218079
  Self energy of the core charge distribution:              -1956.27272208785394
  Core Hamiltonian energy:                                    608.64360416219915
  Hartree energy:                                             765.31792490477937
  Exchange-correlation energy:                               -254.77221771518583
  Dispersion energy:                                           -0.48013342085129
  Electronic entropic energy:                                  -0.00425837404819
  Fermi energy:                                                -0.11212925585283

  Total energy:                                              -837.56777623471407

  outer SCF iter =    1 RMS gradient =   0.75E-06 energy =       -837.5677762347
  outer SCF loop converged in   1 iterations or   85 steps


  Integrated spin density:                                          1.9013580408
  Integrated absolute spin density:                                 6.6867053315
  WARNING: S**2 computation does not yet treat fractional occupied orbitals

 ENERGY| Total FORCE_EVAL ( QS ) energy [hartree]           -837.567829489128485

 OPT| **************************************************************************
 OPT| Step number                                                              5
 OPT| Optimization method                                                   BFGS
 OPT| Total energy [hartree]                                     -837.5678294891
 OPT| Effective energy change [hartree]                            -0.0000265806
 OPT| Predicted energy change [hartree]                            -0.0000213272
 OPT| Scaling factor                                                0.0000000000
 OPT| Step size                                                     0.0438485505
 OPT| Trust radius                                                  0.4724315332
 OPT| Decrease in energy                                                     YES
 OPT| Used time [s]                                                      145.740
 OPT|
 OPT| Maximum step size                                             0.0438485505
 OPT| Convergence limit for maximum step size                       0.0030000000
 OPT| Maximum step size is converged                                          NO
 OPT|
 OPT| RMS step size                                                 0.0030613433
 OPT| Convergence limit for RMS step size                           0.0015000000
 OPT| RMS step size is converged                                              NO
 OPT|
 OPT| Maximum gradient                                              0.0001593869
 OPT| Convergence limit for maximum gradient                        0.0008000000
 OPT| Maximum gradient is converged                                          YES
 OPT|
 OPT| RMS gradient                                                  0.0000142946
 OPT| Convergence limit for RMS gradient                            0.0003000000
 OPT| RMS gradient is converged                                              YES
 OPT| **************************************************************************
 OPT| Estimated peak process memory after this step [MiB]                   1149

 --------------------------
 OPTIMIZATION STEP:      6
 --------------------------

 Extrapolation method: ASPC

 Spin 1

 Number of electrons:                                                        294
 Number of occupied orbitals:                                                298
 Number of molecular orbitals:                                               374

 Spin 2

 Number of electrons:                                                        292
 Number of occupied orbitals:                                                297
 Number of molecular orbitals:                                               372

 Number of orbital functions:                                               1885
 Number of independent orbital functions:                                   1885


 SCF WAVEFUNCTION OPTIMIZATION

  Step     Update method      Time    Convergence         Total energy    Change
  ------------------------------------------------------------------------------
     1 Broy./Diag. 0.20E+00    1.4     0.00166495      -837.5678076304 -8.38E+02
     2 Broy./Diag. 0.20E+00    1.6     0.00036681      -837.5702759122 -2.47E-03
     3 Broy./Diag. 0.20E+00    1.6     0.00011360      -837.5688879485  1.39E-03
     4 Broy./Diag. 0.20E+00    1.6     0.00019254      -837.5678793782  1.01E-03
     5 Broy./Diag. 0.20E+00    1.6     0.00012493      -837.5675865966  2.93E-04
     6 Broy./Diag. 0.20E+00    1.6     0.00016776      -837.5674201272  1.66E-04
     7 Broy./Diag. 0.20E+00    1.7     0.00005925      -837.5674609717 -4.08E-05
     8 Broy./Diag. 0.20E+00    1.7     0.00005464      -837.5675924126 -1.31E-04
     9 Broy./Diag. 0.20E+00    1.7     0.00030735      -837.5676042620 -1.18E-05
    10 Broy./Diag. 0.20E+00    1.7     0.00011659      -837.5677959766 -1.92E-04
    11 Broy./Diag. 0.20E+00    1.7     0.00008175      -837.5677981911 -2.21E-06
    12 Broy./Diag. 0.20E+00    1.7     0.00004515      -837.5677707539  2.74E-05
    13 Broy./Diag. 0.20E+00    1.7     0.00007216      -837.5677682783  2.48E-06
    14 Broy./Diag. 0.20E+00    1.7     0.00002573      -837.5677384552  2.98E-05
    15 Broy./Diag. 0.20E+00    1.7     0.00005563      -837.5677889144 -5.05E-05
    16 Broy./Diag. 0.20E+00    1.7     0.00015306      -837.5678016665 -1.28E-05
    17 Broy./Diag. 0.20E+00    1.7     0.00003865      -837.5677774705  2.42E-05
    18 Broy./Diag. 0.20E+00    1.8     0.00034466      -837.5678054926 -2.80E-05
    19 Broy./Diag. 0.20E+00    1.7     0.00021791      -837.5677090758  9.64E-05
    20 Broy./Diag. 0.20E+00    1.7     0.00018142      -837.5676450423  6.40E-05
    21 Broy./Diag. 0.20E+00    1.7     0.00011384      -837.5675741883  7.09E-05
    22 Broy./Diag. 0.20E+00    1.7     0.00012768      -837.5675233965  5.08E-05
    23 Broy./Diag. 0.20E+00    1.7     0.00006541      -837.5674745255  4.89E-05
    24 Broy./Diag. 0.20E+00    1.7     0.00005046      -837.5674893495 -1.48E-05
    25 Broy./Diag. 0.20E+00    1.7     0.00008771      -837.5675033437 -1.40E-05
    26 Broy./Diag. 0.20E+00    1.8     0.00009403      -837.5674727574  3.06E-05
    27 Broy./Diag. 0.20E+00    1.7     0.00007118      -837.5673932573  7.95E-05
    28 Broy./Diag. 0.20E+00    1.7     0.00008937      -837.5674410229 -4.78E-05
    29 Broy./Diag. 0.20E+00    1.7     0.00003185      -837.5675140900 -7.31E-05
    30 Broy./Diag. 0.20E+00    1.7     0.00005371      -837.5675633109 -4.92E-05
    31 Broy./Diag. 0.20E+00    1.7     0.00002453      -837.5675843529 -2.10E-05
    32 Broy./Diag. 0.20E+00    1.7     0.00003184      -837.5676234592 -3.91E-05
    33 Broy./Diag. 0.20E+00    1.8     0.00003172      -837.5676636035 -4.01E-05
    34 Broy./Diag. 0.20E+00    1.7     0.00008723      -837.5676601288  3.47E-06
    35 Broy./Diag. 0.20E+00    1.7     0.00007304      -837.5677702649 -1.10E-04
    36 Broy./Diag. 0.20E+00    1.8     0.00000778      -837.5678284356 -5.82E-05
    37 Broy./Diag. 0.20E+00    1.7     0.00002076      -837.5678334694 -5.03E-06
    38 Broy./Diag. 0.20E+00    1.8     0.00001442      -837.5678468907 -1.34E-05
    39 Broy./Diag. 0.20E+00    1.7     0.00000575      -837.5678278348  1.91E-05
    40 Broy./Diag. 0.20E+00    1.7     0.00000336      -837.5678307518 -2.92E-06

  *** SCF run converged in    40 steps ***


  Electronic density on regular grids:       -585.9999833498        0.0000166502
  Core density on regular grids:              585.9999999520       -0.0000000480
  Total charge density on r-space grids:        0.0000166022
  Total charge density g-space grids:           0.0000166022

  Overlap energy of the core charge distribution:               0.00002630219845
  Self energy of the core charge distribution:              -1956.27272208785394
  Core Hamiltonian energy:                                    608.64426539180931
  Hartree energy:                                             765.31732205980882
  Exchange-correlation energy:                               -254.77249107232129
  Dispersion energy:                                           -0.47998010748158
  Electronic entropic energy:                                  -0.00425122441948
  Fermi energy:                                                -0.11207804763416

  Total energy:                                              -837.56783075179601

  outer SCF iter =    1 RMS gradient =   0.34E-05 energy =       -837.5678307518
  outer SCF loop converged in   1 iterations or   40 steps


  Integrated spin density:                                          1.8978213720
  Integrated absolute spin density:                                 6.6880957886
  WARNING: S**2 computation does not yet treat fractional occupied orbitals

 ENERGY| Total FORCE_EVAL ( QS ) energy [hartree]           -837.567835123683039

 OPT| **************************************************************************
 OPT| Step number                                                              6
 OPT| Optimization method                                                   BFGS
 OPT| Total energy [hartree]                                     -837.5678351237
 OPT| Effective energy change [hartree]                            -0.0000056346
 OPT| Predicted energy change [hartree]                            -0.0000045533
 OPT| Scaling factor                                                0.0000000000
 OPT| Step size                                                     0.0321685363
 OPT| Trust radius                                                  0.4724315332
 OPT| Decrease in energy                                                     YES
 OPT| Used time [s]                                                       68.914
 OPT|
 OPT| Maximum step size                                             0.0321685363
 OPT| Convergence limit for maximum step size                       0.0030000000
 OPT| Maximum step size is converged                                          NO
 OPT|
 OPT| RMS step size                                                 0.0022080259
 OPT| Convergence limit for RMS step size                           0.0015000000
 OPT| RMS step size is converged                                              NO
 OPT|
 OPT| Maximum gradient                                              0.0002850428
 OPT| Convergence limit for maximum gradient                        0.0008000000
 OPT| Maximum gradient is converged                                          YES
 OPT|
 OPT| RMS gradient                                                  0.0000201112
 OPT| Convergence limit for RMS gradient                            0.0003000000
 OPT| RMS gradient is converged                                              YES
 OPT| **************************************************************************
 OPT| Estimated peak process memory after this step [MiB]                   1217

 --------------------------
 OPTIMIZATION STEP:      7
 --------------------------

 Extrapolation method: ASPC

 Spin 1

 Number of electrons:                                                        294
 Number of occupied orbitals:                                                298
 Number of molecular orbitals:                                               374

 Spin 2

 Number of electrons:                                                        292
 Number of occupied orbitals:                                                297
 Number of molecular orbitals:                                               372

 Number of orbital functions:                                               1885
 Number of independent orbital functions:                                   1885


 SCF WAVEFUNCTION OPTIMIZATION

  Step     Update method      Time    Convergence         Total energy    Change
  ------------------------------------------------------------------------------
     1 Broy./Diag. 0.20E+00    1.4     0.00256166      -837.5678340883 -8.38E+02
     2 Broy./Diag. 0.20E+00    1.6     0.00211281      -837.5691653794 -1.33E-03
     3 Broy./Diag. 0.20E+00    1.6     0.00021989      -837.5673929993  1.77E-03
     4 Broy./Diag. 0.20E+00    1.6     0.00003344      -837.5675455745 -1.53E-04
     5 Broy./Diag. 0.20E+00    1.6     0.00001464      -837.5678103685 -2.65E-04
     6 Broy./Diag. 0.20E+00    1.6     0.00002840      -837.5679123651 -1.02E-04
     7 Broy./Diag. 0.20E+00    1.7     0.00002429      -837.5679155485 -3.18E-06
     8 Broy./Diag. 0.20E+00    1.7     0.00001154      -837.5678974584  1.81E-05
     9 Broy./Diag. 0.20E+00    1.7     0.00003671      -837.5678703969  2.71E-05
    10 Broy./Diag. 0.20E+00    1.7     0.00001525      -837.5678434832  2.69E-05
    11 Broy./Diag. 0.20E+00    1.7     0.00001308      -837.5678449936 -1.51E-06
    12 Broy./Diag. 0.20E+00    1.7     0.00001080      -837.5678455616 -5.68E-07
    13 Broy./Diag. 0.20E+00    1.7     0.00001810      -837.5678545928 -9.03E-06
    14 Broy./Diag. 0.20E+00    1.7     0.00000827      -837.5678548905 -2.98E-07
    15 Broy./Diag. 0.20E+00    1.7     0.00002422      -837.5678490370  5.85E-06
    16 Broy./Diag. 0.20E+00    1.7     0.00000851      -837.5678371262  1.19E-05
    17 Broy./Diag. 0.20E+00    1.7     0.00001519      -837.5678449047 -7.78E-06
    18 Broy./Diag. 0.20E+00    1.7     0.00000202      -837.5678376945  7.21E-06

  *** SCF run converged in    18 steps ***


  Electronic density on regular grids:       -585.9999833498        0.0000166502
  Core density on regular grids:              585.9999999520       -0.0000000480
  Total charge density on r-space grids:        0.0000166021
  Total charge density g-space grids:           0.0000166021

  Overlap energy of the core charge distribution:               0.00002630219379
  Self energy of the core charge distribution:              -1956.27272208785394
  Core Hamiltonian energy:                                    608.64336330229514
  Hartree energy:                                             765.31769250170100
  Exchange-correlation energy:                               -254.77203598681257
  Dispersion energy:                                           -0.47990614812607
  Electronic entropic energy:                                  -0.00425561445780
  Fermi energy:                                                -0.11208955363460

  Total energy:                                              -837.56783769449316

  outer SCF iter =    1 RMS gradient =   0.20E-05 energy =       -837.5678376945
  outer SCF loop converged in   1 iterations or   18 steps


  Integrated spin density:                                          1.8976105904
  Integrated absolute spin density:                                 6.6897738178
  WARNING: S**2 computation does not yet treat fractional occupied orbitals

 ENERGY| Total FORCE_EVAL ( QS ) energy [hartree]           -837.567836871660916

 OPT| **************************************************************************
 OPT| Step number                                                              7
 OPT| Optimization method                                                   BFGS
 OPT| Total energy [hartree]                                     -837.5678368717
 OPT| Effective energy change [hartree]                            -0.0000017480
 OPT| Predicted energy change [hartree]                            -0.0000012433
 OPT| Scaling factor                                                0.0000000000
 OPT| Step size                                                     0.0156010420
 OPT| Trust radius                                                  0.4724315332
 OPT| Decrease in energy                                                     YES
 OPT| Used time [s]                                                       31.146
 OPT|
 OPT| Maximum step size                                             0.0156010420
 OPT| Convergence limit for maximum step size                       0.0030000000
 OPT| Maximum step size is converged                                          NO
 OPT|
 OPT| RMS step size                                                 0.0010838148
 OPT| Convergence limit for RMS step size                           0.0015000000
 OPT| RMS step size is converged                                             YES
 OPT|
 OPT| Maximum gradient                                              0.0001911236
 OPT| Convergence limit for maximum gradient                        0.0008000000
 OPT| Maximum gradient is converged                                          YES
 OPT|
 OPT| RMS gradient                                                  0.0000149946
 OPT| Convergence limit for RMS gradient                            0.0003000000
 OPT| RMS gradient is converged                                              YES
 OPT| **************************************************************************
 OPT| Estimated peak process memory after this step [MiB]                   1246

 --------------------------
 OPTIMIZATION STEP:      8
 --------------------------

 Extrapolation method: ASPC

 Spin 1

 Number of electrons:                                                        294
 Number of occupied orbitals:                                                298
 Number of molecular orbitals:                                               374

 Spin 2

 Number of electrons:                                                        292
 Number of occupied orbitals:                                                297
 Number of molecular orbitals:                                               372

 Number of orbital functions:                                               1885
 Number of independent orbital functions:                                   1885


 SCF WAVEFUNCTION OPTIMIZATION

  Step     Update method      Time    Convergence         Total energy    Change
  ------------------------------------------------------------------------------
     1 Broy./Diag. 0.20E+00    1.4     0.00628660      -837.5678374065 -8.38E+02
     2 Broy./Diag. 0.20E+00    1.6     0.00507313      -837.5724497577 -4.61E-03
     3 Broy./Diag. 0.20E+00    1.6     0.00032647      -837.5678326171  4.62E-03
     4 Broy./Diag. 0.20E+00    1.6     0.00008530      -837.5679162491 -8.36E-05
     5 Broy./Diag. 0.20E+00    1.6     0.00004026      -837.5680081316 -9.19E-05
     6 Broy./Diag. 0.20E+00    1.6     0.00006729      -837.5680806160 -7.25E-05
     7 Broy./Diag. 0.20E+00    1.6     0.00002404      -837.5679798160  1.01E-04
     8 Broy./Diag. 0.20E+00    1.7     0.00001923      -837.5679211316  5.87E-05
     9 Broy./Diag. 0.20E+00    1.7     0.00003254      -837.5678627048  5.84E-05
    10 Broy./Diag. 0.20E+00    1.7     0.00001216      -837.5678319050  3.08E-05
    11 Broy./Diag. 0.20E+00    1.7     0.00004667      -837.5678467873 -1.49E-05
    12 Broy./Diag. 0.20E+00    1.7     0.00003452      -837.5678694157 -2.26E-05
    13 Broy./Diag. 0.20E+00    1.7     0.00000919      -837.5678318367  3.76E-05
    14 Broy./Diag. 0.20E+00    1.7     0.00004253      -837.5678483566 -1.65E-05
    15 Broy./Diag. 0.20E+00    1.7     0.00002127      -837.5678570446 -8.69E-06
    16 Broy./Diag. 0.20E+00    1.7     0.00005915      -837.5678557674  1.28E-06
    17 Broy./Diag. 0.20E+00    1.7     0.00006410      -837.5678583842 -2.62E-06
    18 Broy./Diag. 0.20E+00    1.7     0.00011350      -837.5678575678  8.16E-07
    19 Broy./Diag. 0.20E+00    1.7     0.00003413      -837.5677981819  5.94E-05
    20 Broy./Diag. 0.20E+00    1.7     0.00000547      -837.5677884642  9.72E-06
    21 Broy./Diag. 0.20E+00    1.7     0.00002499      -837.5677957740 -7.31E-06
    22 Broy./Diag. 0.20E+00    1.7     0.00001140      -837.5678129477 -1.72E-05
    23 Broy./Diag. 0.20E+00    1.7     0.00006185      -837.5678221235 -9.18E-06
    24 Broy./Diag. 0.20E+00    1.7     0.00001190      -837.5678462484 -2.41E-05
    25 Broy./Diag. 0.20E+00    1.7     0.00002484      -837.5678408336  5.41E-06
    26 Broy./Diag. 0.20E+00    1.8     0.00001293      -837.5678212134  1.96E-05
    27 Broy./Diag. 0.20E+00    1.7     0.00001722      -837.5678261365 -4.92E-06
    28 Broy./Diag. 0.20E+00    1.7     0.00002395      -837.5678196105  6.53E-06
    29 Broy./Diag. 0.20E+00    1.7     0.00001949      -837.5678118232  7.79E-06
    30 Broy./Diag. 0.20E+00    1.7     0.00000855      -837.5678121990 -3.76E-07
    31 Broy./Diag. 0.20E+00    1.7     0.00001113      -837.5678088680  3.33E-06
    32 Broy./Diag. 0.20E+00    1.7     0.00001436      -837.5678110631 -2.20E-06
    33 Broy./Diag. 0.20E+00    1.7     0.00014371      -837.5678060527  5.01E-06
    34 Broy./Diag. 0.20E+00    1.7     0.00003073      -837.5678589773 -5.29E-05
    35 Broy./Diag. 0.20E+00    1.7     0.00001704      -837.5678688068 -9.83E-06
    36 Broy./Diag. 0.20E+00    1.7     0.00002185      -837.5678702815 -1.47E-06
    37 Broy./Diag. 0.20E+00    1.7     0.00003881      -837.5678616480  8.63E-06
[...]

 Extrapolation method: ASPC

 Spin 1

 Number of electrons:                                                        294
 Number of occupied orbitals:                                                298
 Number of molecular orbitals:                                               374

 Spin 2

 Number of electrons:                                                        292
 Number of occupied orbitals:                                                297
 Number of molecular orbitals:                                               372

 Number of orbital functions:                                               1885
 Number of independent orbital functions:                                   1885


 SCF WAVEFUNCTION OPTIMIZATION

  Step     Update method      Time    Convergence         Total energy    Change
  ------------------------------------------------------------------------------
     1 Broy./Diag. 0.20E+00    1.4     0.01204732      -837.5679436829 -8.38E+02
     2 Broy./Diag. 0.20E+00    1.6     0.00859776      -837.5585024036  9.44E-03
     3 Broy./Diag. 0.20E+00    1.6     0.00239665      -837.5667579327 -8.26E-03
     4 Broy./Diag. 0.20E+00    1.8     0.00075165      -837.5685948335 -1.84E-03
     5 Broy./Diag. 0.20E+00    1.8     0.00061064      -837.5677930673  8.02E-04
     6 Broy./Diag. 0.20E+00    1.7     0.00012467      -837.5682004473 -4.07E-04
     7 Broy./Diag. 0.20E+00    1.7     0.00014310      -837.5680201936  1.80E-04
     8 Broy./Diag. 0.20E+00    1.7     0.00003230      -837.5680765611 -5.64E-05
     9 Broy./Diag. 0.20E+00    1.7     0.00007233      -837.5680209243  5.56E-05
    10 Broy./Diag. 0.20E+00    1.8     0.00003149      -837.5679989706  2.20E-05
    11 Broy./Diag. 0.20E+00    1.7     0.00004619      -837.5679681308  3.08E-05
    12 Broy./Diag. 0.20E+00    1.7     0.00001803      -837.5679722620 -4.13E-06
    13 Broy./Diag. 0.20E+00    1.7     0.00002515      -837.5679591743  1.31E-05
    14 Broy./Diag. 0.20E+00    1.7     0.00001259      -837.5679609493 -1.77E-06
    15 Broy./Diag. 0.20E+00    1.8     0.00000702      -837.5679516014  9.35E-06
    16 Broy./Diag. 0.20E+00    1.8     0.00001066      -837.5679398734  1.17E-05
    17 Broy./Diag. 0.20E+00    1.8     0.00000639      -837.5679461572 -6.28E-06
    18 Broy./Diag. 0.20E+00    1.8     0.00000375      -837.5679523005 -6.14E-06

  *** SCF run converged in    18 steps ***


  Electronic density on regular grids:       -585.9999833502        0.0000166498
  Core density on regular grids:              585.9999999520       -0.0000000480
  Total charge density on r-space grids:        0.0000166017
  Total charge density g-space grids:           0.0000166017

  Overlap energy of the core charge distribution:               0.00002630218839
  Self energy of the core charge distribution:              -1956.27272208785394
  Core Hamiltonian energy:                                    608.64333655890346
  Hartree energy:                                             765.31792488917893
  Exchange-correlation energy:                               -254.77222006743250
  Dispersion energy:                                           -0.48003702306863
  Electronic entropic energy:                                  -0.00426085565732
  Fermi energy:                                                -0.11211607623147

  Total energy:                                              -837.56795230047783

  outer SCF iter =    1 RMS gradient =   0.38E-05 energy =       -837.5679523005
  outer SCF loop converged in   1 iterations or   18 steps


  Integrated spin density:                                          1.8971883768
  Integrated absolute spin density:                                 6.6872325300
  WARNING: S**2 computation does not yet treat fractional occupied orbitals

 ENERGY| Total FORCE_EVAL ( QS ) energy [hartree]           -837.567952300477828

 -------------------------------------------------------------------------------
 -                                                                             -
 -                                DBCSR STATISTICS                             -
 -                                                                             -
 -------------------------------------------------------------------------------
 COUNTER                                    TOTAL       BLAS       SMM       ACC
 flops    13 x    20 x    13          12072143200     100.0%      0.0%      0.0%     
 flops    13 x    22 x    13          13279357520     100.0%      0.0%      0.0%     
 flops    13 x    13 x    84         281614058544     100.0%      0.0%      0.0%     
 flops    13 x    13 x    86         288319155176     100.0%      0.0%      0.0%     
 flops    13 x    32 x    13         424939440640     100.0%      0.0%      0.0%     
 flops    13 x    13 x    96        1931067830016     100.0%      0.0%      0.0%     
 flops inhomo. stacks                           0       0.0%      0.0%      0.0%
 flops total                         2.951292E+12     100.0%      0.0%      0.0%
 flops max/rank                    197.041527E+09     100.0%      0.0%      0.0%
 matmuls inhomo. stacks                         0       0.0%      0.0%      0.0%
 matmuls total                          122209936     100.0%      0.0%      0.0%
 number of processed stacks                369636     100.0%      0.0%      0.0%
 average stack size                                   330.6       0.0       0.0
 marketing flops                   198.893202E-15
 -------------------------------------------------------------------------------
 # multiplications                           2642
 max memory usage/rank               4.175507E+09
 # max total images/rank                        1
 # max 3D layers                                1
 # MPI messages exchanged                  253632
 MPI messages size (bytes):
  total size                      -148.654809E+30
  min size                         314.496000E+03
  max size                           1.439880E+06
  average size                    -586.104304E+24
 MPI breakdown and total messages size (bytes):
             size <=      128                   0                        0
       128 < size <=     8192                   0                        0
      8192 < size <=    32768                   0                        0
     32768 < size <=   131072                   0                        0
    131072 < size <=  4194304              253632              99939141120
   4194304 < size <= 16777216                   0                        0
  16777216 < size                               0                        0
 -------------------------------------------------------------------------------
 -                                                                             -
 -                      DBCSR MESSAGE PASSING PERFORMANCE                      -
 -                                                                             -
 -------------------------------------------------------------------------------
 ROUTINE             CALLS      AVE VOLUME [Bytes]
 MP_Bcast                7                     12.
 MP_Allreduce        12801                      8.
 MP_Alltoall         71584                 361548.
 MP_ISend            42272                 155457.
 MP_IRecv            42272                 151119.
 -------------------------------------------------------------------------------

 -------------------------------------------------------------------------------
 -                                                                             -
 -                                GRID STATISTICS                              -
 -                                                                             -
 -------------------------------------------------------------------------------
 LP    KERNEL             BACKEND                              COUNT     PERCENT
 4     collocate ortho    CPU                              175207722      50.00%
 4     integrate ortho    CPU                              171521010      48.95%
 5     integrate ortho    CPU                                3539234       1.01%
 0     collocate general  CPU                                  58000       0.02%
 1     integrate general  CPU                                  55680       0.02%
 -------------------------------------------------------------------------------

 -------------------------------------------------------------------------------
 -                                                                             -
 -                          OFFLOAD MEMPOOL STATISTICS                         -
 -                                                                             -
 -------------------------------------------------------------------------------
 Memory consumption                Number of allocations  Used [MiB]  Size [MiB]
 Device                                               12          16          16
 Host                                                 12          16          16
 -------------------------------------------------------------------------------

 MEMORY| Estimated peak process memory [MiB]                                2489

 -------------------------------------------------------------------------------
 -                                                                             -
 -                         MESSAGE PASSING PERFORMANCE                         -
 -                                                                             -
 -------------------------------------------------------------------------------

 ROUTINE             CALLS      AVE VOLUME [Bytes]
 MP_Group                4
 MP_Bcast             3745                  19645.
 MP_Allreduce        36540                    116.
 MP_Sync              2402
 MP_Alltoall         46630               10889304.
 MP_SendRecv         72720                  56520.
 MP_ISendRecv        71220                  57600.
 MP_Wait            290847
 MP_comm_split        2398
 MP_ISend           190980                 245441.
 MP_IRecv           190980                 245443.
 -------------------------------------------------------------------------------


 -------------------------------------------------------------------------------
 -                                                                             -
 -                           R E F E R E N C E S                               -
 -                                                                             -
 -------------------------------------------------------------------------------
 
 CP2K version 2026.1, the CP2K developers group (2026).
 CP2K is freely available from https://www.cp2k.org/ .
 
 T. D. Kuehne, M. Iannuzzi, M. Del Ben, V. V. Rybkin, P. Seewald, F. Stein, T. 
 Laino, R. Z. Khaliullin, O. Schuett, F. Schiffmann, D. Golze, J. Wilhelm, S. 
 Chulkov, M. H. Bani-Hashemian, V. Weber, U. Borstnik, M. Taillefumier, A. S. 
 Jakobovits, A. Lazzaro, H. Pabst, T. Mueller, R. Schade, M. Guidon, S. 
 Andermatt, N. Holmberg, G. K. Schenter, A. Hehn, A. Bussy, F. Belleflamme, G. 
 Tabacchi, A. Gloess, M. Lass, I. Bethune, C. J. Mundy, C. Plessl, M. Watkins, 
 J. VandeVondele, M. Krack, J. Hutter.
 J. Chem. Phys. 152, 194103 (2020).
 CP2K: An electronic structure and molecular dynamics software package - 
 Quickstep: Efficient and accurate electronic structure calculations.
 https://doi.org/10.1063/5.0007045

 L. Goerigk, A. Hansen, C. Bauer, S. Ehrlich, A. Najibi, S. Grimme.
 Phys. Chem. Chem. Phys. 19, 32184-32215 (2017).
 A look at the density functional theory zoo with the advanced GMTKN55 database 
 for general main group thermochemistry, kinetics and noncovalent interactions.
 https://doi.org/10.1039/C7CP04913G

 O. Schuett, P. Messmer, J. Hutter, J. VandeVondele.
 Electronic Structure Calculations on Graphics Processing Units, 173-190 (2016).
 GPU-Accelerated Sparse Matrix-Matrix Multiplication for Linear Scaling Density 
 Functional Theory.
 https://doi.org/10.1002/9781118670712.ch8

 A. Heinecke, G. Henry, M. Hutchinson, H. Pabst.
 Proceedings of Intl. Supercomputing Conference, 981-991 (2016).
 LIBXSMM: Accelerating Small Matrix Multiplications by Runtime Code Generation.
 https://doi.org/10.1109/SC.2016.83

 J. Hutter, M. Iannuzzi, F. Schiffmann, J. VandeVondele.
 WIREs Comput Mol Sci. 4, 15-25 (2014).
 CP2K: atomistic simulations of condensed matter systems.
 https://doi.org/10.1002/wcms.1159

 U. Borstnik, J. VandeVondele, V. Weber, J. Hutter.
 Parallel Comput. 40, 47-58 (2014).
 Sparse matrix multiplication: The distributed block-compressed sparse row 
 library.
 https://doi.org/10.1016/j.parco.2014.03.012

 S. Grimme, S. Ehrlich, L. Goerigk.
 J. Comput. Chem. 32, 1456 (2011).
 Effect of the damping function in dispersion corrected density functional 
 theory.
 https://doi.org/10.1002/jcc.21759

 S. Grimme, J. Antony, S. Ehrlich, H. Krieg.
 J. Chem. Phys. 132, 154104 (2010).
 A consistent and accurate ab initio parametrization of density functional 
 dispersion correction (DFT-D) for the 94 elements H-Pu.
 https://doi.org/10.1063/1.3382344

 J. VandeVondele, J. Hutter.
 J. Chem. Phys. 127, 114105 (2007).
 Gaussian basis sets for accurate calculations on molecular systems in gas and 
 condensed phases.
 https://doi.org/10.1063/1.2770708

 T. D. Kühne, M. Krack, F. R. Mohamed, M. Parrinello.
 Phys. Rev. Lett. 98, 066401 (2007).
 Efficient and accurate Car-Parrinello-like approach to Born-Oppenheimer 
 molecular dynamics.
 https://doi.org/10.1103/PhysRevLett.98.066401

 J. VandeVondele, M. Krack, F. Mohamed, M. Parrinello, T. Chassaing, J. Hutter.
 Comput. Phys. Commun. 167, 103-128 (2005).
 QUICKSTEP: Fast and accurate density functional calculations using a mixed 
 Gaussian and plane waves approach.
 https://doi.org/10.1016/j.cpc.2004.12.014

 M. Krack.
 Theor. Chem. Acc. 114, 145-152 (2005).
 Pseudopotentials for H to Kr optimized for gradient-corrected 
 exchange-correlation functionals.
 https://doi.org/10.1007/s00214-005-0655-y

 M. Frigo, S. G. Johnson.
 Proc. IEEE 93, 216-231 (2005).
 The design and implementation of FFTW3.
 https://doi.org/10.1109/JPROC.2004.840301

 J. Kolafa.
 J. Comput. Chem. 25, 335-342 (2004).
 Time-reversible always stable predictor-corrector method for molecular dynamics 
 of polarizable molecules.
 https://doi.org/10.1002/jcc.10385

 C. Hartwigsen, S. Goedecker, J. Hutter.
 Phys. Rev. B 58, 3641-3662 (1998).
 Relativistic separable dual-space Gaussian pseudopotentials from H to Rn.
 https://doi.org/10.1103/PhysRevB.58.3641

 G. Lippert, J. Hutter, M. Parrinello.
 Mol. Phys. 92, 477-487 (1997).
 A hybrid Gaussian and plane wave density functional scheme.
 https://doi.org/10.1080/002689797170220

 S. Goedecker, M. Teter, J. Hutter.
 Phys. Rev. B 54, 1703-1710 (1996).
 Separable dual-space Gaussian pseudopotentials.
 https://doi.org/10.1103/PhysRevB.54.1703

 J. P. Perdew, K. Burke, M. Ernzerhof.
 Phys. Rev. Lett. 77, 3865-3868 (1996).
 Generalized gradient approximation made simple.
 https://doi.org/10.1103/PhysRevLett.77.3865


 -------------------------------------------------------------------------------
 -                                                                             -
 -                                T I M I N G                                  -
 -                                                                             -
 -------------------------------------------------------------------------------
 SUBROUTINE                       CALLS  ASD         SELF TIME        TOTAL TIME
                                MAXIMUM       AVERAGE  MAXIMUM  AVERAGE  MAXIMUM
 CP2K                                 1  1.0    0.021    0.027 2009.181 2009.188
 cp_geo_opt                           1  2.0    0.000    0.000 2008.948 2008.955
 geoopt_bfgs                          1  3.0    0.012    0.017 2008.948 2008.955
 cp_eval_at                          25  4.0    0.002    0.003 2007.884 2007.889
 qs_energies                         25  6.0    0.002    0.002 1994.517 1994.523
 scf_env_do_scf                      25  7.0    0.003    0.003 1981.304 1981.538
 scf_env_do_scf_inner_loop         1163  8.0    0.035    0.099 1981.288 1981.522
 qs_forces                           24  5.0    0.003    0.003 1976.188 1976.194
 qs_scf_new_mos                    1163  9.0    0.024    0.027 1173.384 1173.610
 eigensolver                       2326 10.0    0.159    0.193 1141.749 1142.611
 cp_fm_syevd                       2398 11.0    0.025    0.035  963.088  963.649
 cp_fm_redistribute_end            2398 12.0  481.929  956.440  485.346  960.972
 cp_fm_syevd_base                  2398 12.0  473.449  948.175  473.449  948.175
 rebuild_ks_matrix                 1187  9.9    0.003    0.004  452.947  453.195
 qs_ks_build_kohn_sham_matrix      1187 10.9    0.152    0.170  452.944  453.192
 qs_ks_update_qs_env               1163  9.0    0.008    0.009  442.632  442.927
 fft_wrap_pw1pw2                  41482 14.1    0.669    0.775  358.507  368.881
 fft_wrap_pw1pw2_80               27232 15.4   13.120   16.712  341.355  351.337
 fft3d_ps                         41482 16.1  154.246  191.935  278.960  303.747
 qs_vxc_create                     1187 11.9    0.021    0.031  267.935  271.364
 xc_vxc_pw_create                  1187 12.9    3.808    4.528  267.913  271.349
 xc_pw_derive                     14244 14.9    0.135    0.181  194.217  205.301
 qs_rho_update_rho_low             1188  9.0    0.007    0.008  189.255  189.471
 calculate_rho_elec                2376 10.0    2.069    2.207  189.248  189.464
 cp_fm_cholesky_restore            6978 11.0  173.577  180.717  173.577  180.717
 gspace_mixing                     1138  9.0    2.000    2.139  178.000  178.001
 sum_up_and_integrate              1187 11.9    0.033    0.038  154.144  154.437
 integrate_v_rspace                2374 12.9    0.090    0.121  153.026  153.163
 density_rs2pw                     2376 11.0    0.097    0.109  110.400  151.679
 broyden_mixing                    1138 10.0  102.247  136.823  136.895  139.639
 mp_alltoall_z22v                 41482 18.1   90.469  139.295   90.469  139.295
 xc_rho_set_and_dset_create        1187 13.9    3.411    4.140  131.043  134.066
 xc_pw_divergence                  2374 13.9    0.057    0.073  128.345  133.260
 grid_collocate_task_list          2376 11.0   67.454   88.511   67.454   88.511
 x_to_yz                          22457 17.3   19.866   23.021   68.494   86.838
 grid_integrate_task_list          2374 13.9   59.605   86.674   59.605   86.674
 yz_to_x                          19025 16.8   13.597   15.457   55.438   80.635
 transfer_rs2pw                    9529 12.0    0.079    0.093   42.542   80.172
 mp_waitany                      190980 15.4   37.917   79.785   37.917   79.785
 mp_alltoall_d11v                 35416 13.3   35.318   73.625   35.318   73.625
 transfer_rs2pw_80                 2401 13.0    4.415    5.237   31.903   68.894
 rs_gather_matrices                2374 13.9    1.126    1.417   28.759   67.453
 potential_pw2rs                   2374 13.9    0.353    0.421   64.502   64.904
 mp_sum_dm                         4267  8.6   22.278   56.856   22.278   56.856
 mp_sum_d                         20393 11.5   21.151   40.851   21.151   40.851
 -------------------------------------------------------------------------------

 The number of warnings for this run is : 0
 
 -------------------------------------------------------------------------------
  **** **** ******  **  PROGRAM ENDED AT                 2026-06-19 19:47:36.006
 ***** ** ***  *** **   PROGRAM RAN ON             ip-172-31-89-158.ec2.internal
 **    ****   ******    PROGRAM RAN BY                                 <unknown>
 ***** **    ** ** **   PROGRAM PROCESS ID                                  8648
  **** **  *******  **  PROGRAM STOPPED IN /opt/cp2k_sanity/cp2k_adsorption_hete
                                           rogeneity
