 DBCSR| CPU Multiplication driver                                           BLAS (U)
 DBCSR| Multrec recursion limit                                              512 (U)
 DBCSR| Multiplication stack size                                           1000 (D)
 DBCSR| Maximum elements for images                                    UNLIMITED (U)
 DBCSR| Multiplicative factor virtual images                                   1 (U)
 DBCSR| Use multiplication densification                                       T (D)
 DBCSR| Multiplication size stacks                                             3 (U)
 DBCSR| Use memory pool for CPU allocation                                     F (U)
 DBCSR| Number of 3D layers                                               SINGLE (U)
 DBCSR| Use MPI memory allocation                                              F (U)
 DBCSR| Use RMA algorithm                                                      F (U)
 DBCSR| Use Communication thread                                               T (U)
 DBCSR| Communication thread load                                             83 (D)
 DBCSR| MPI: My process id                                                     0
 DBCSR| MPI: Number of processes                                              16
 DBCSR| OMP: Current number of threads                                         2
 DBCSR| OMP: Max number of threads                                             2
 DBCSR| Split modifier for TAS multiplication algorithm                  1.0E+00 (U)


  **** **** ******  **  PROGRAM STARTED AT               2026-06-19 20:14:38.654
 ***** ** ***  *** **   PROGRAM STARTED ON         ip-172-31-89-158.ec2.internal
 **    ****   ******    PROGRAM STARTED BY                             <unknown>
 ***** **    ** ** **   PROGRAM PROCESS ID                                 11838
  **** **  *******  **  PROGRAM STARTED IN /opt/cp2k_sanity/cp2k_adsorption_hete
                                           rogeneity

 CP2K| version string:                                       CP2K version 2026.1
 CP2K| source code revision number:                                      aceff1c
 CP2K| cp2kflags: omp libint fftw3 libxc parallel scalapack mpi_f08 cosma xsmm p
 CP2K|            lumed2 spglib sirius libtorch hdf5 trexio
 CP2K| is freely available from                            https://www.cp2k.org/
 CP2K| Program compiled at                                   2026-06-16 16:35:48
 CP2K| Program compiled on                                                      
 CP2K| Program compiled for                                               x86_64
 CP2K| Data directory path                  /opt/cp2k_sanity/env/share/cp2k/data
 CP2K| Input file name        cp2k_inputs/sanity/bsse/single_vacancy_periodic_sl

 GLOBAL| Force Environment number                                              1
 GLOBAL| Basis set file name            /opt/cp2k_sanity/env/share/cp2k/data/BAS
 GLOBAL| Potential file name            /opt/cp2k_sanity/env/share/cp2k/data/GTH
 GLOBAL| MM Potential file name                                     MM_POTENTIAL
 GLOBAL| Coordinate file name                                      __STD_INPUT__
 GLOBAL| Method name                                                        CP2K
 GLOBAL| Project name                   single_vacancy_periodic_slab_sanity_opti
 GLOBAL| Run type                                                           BSSE
 GLOBAL| FFT library                                                       FFTW3
 GLOBAL| Diagonalization library                                       ScaLAPACK
 GLOBAL| Cholesky decomposition library                                ScaLAPACK
 GLOBAL| DGEMM library                                                      BLAS
 GLOBAL| Orthonormality check for eigenvectors                          DISABLED
 GLOBAL| Matrix multiplication library                                     COSMA
 GLOBAL| All-to-all communication in single precision                          F
 GLOBAL| FFTs using library dependent lengths                                  F
 GLOBAL| Grid backend                                                       AUTO
 GLOBAL| Global print level                                                  LOW
 GLOBAL| MPI I/O enabled                                                       T
 GLOBAL| Total number of message passing processes                            16
 GLOBAL| Number of distributed systems (nodes)                                 1
 GLOBAL| Number of threads for this process                                    2
 GLOBAL| This output is from process                                           0
 GLOBAL| OpenMP stack size per thread (OMP_STACKSIZE)                    default
 GLOBAL| CPU model name                                            AMD EPYC 9R14
 GLOBAL| CPUID                                                              1003
 GLOBAL| Compiled for CPUID                                                 1002

 *** HINT in environment.F:960 :: The compiler target flags (x86_avx2)     ***
 *** used to build this binary cannot exploit all extensions of this CPU   ***
 *** model (x86_avx512). Consider compiler target flags as part of FCFLAGS ***
 *** and CFLAGS (ARCH file).                                               ***


 MEMORY| system memory details [Kb]
 MEMORY|                        rank 0           min           max       average
 MEMORY| MemTotal             64430560      64430560      64430560      64430560
 MEMORY| MemFree              56308224      56308224      56308224      56308224
 MEMORY| Buffers                  3172          3172          3172          3172
 MEMORY| Cached                4642032       4642032       4642032       4642032
 MEMORY| Slab                   309652        309652        309652        309652
 MEMORY| SReclaimable           120876        120876        120876        120876
 MEMORY| MemLikelyFree        61074304      61074304      61074304      61074304


 GENERATE|  Preliminary Number of Bonds generated:                             0
 GENERATE|  Achieved consistency in connectivity generation.

 *******************************************************************************
 *******************************************************************************
 **                                                                           **
 **     #####                         ##              ##                      **
 **    ##   ##            ##          ##              ##                      **
 **   ##     ##                       ##            ######                    **
 **   ##     ##  ##   ##  ##   #####  ##  ##   ####   ##    #####    #####    **
 **   ##     ##  ##   ##  ##  ##      ## ##   ##      ##   ##   ##  ##   ##   **
 **   ##  ## ##  ##   ##  ##  ##      ####     ###    ##   ######   ######    **
 **    ##  ###   ##   ##  ##  ##      ## ##      ##   ##   ##       ##        **
 **     #######   #####   ##   #####  ##  ##  ####    ##    #####   ##        **
 **           ##                                                    ##        **
 **                                                                           **
 **                                                ... make the atoms dance   **
 **                                                                           **
 **            Copyright (C) by CP2K developers group (2000-2026)             **
 **                      J. Chem. Phys. 152, 194103 (2020)                    **
 **                                                                           **
 *******************************************************************************


 TOTAL NUMBERS AND MAXIMUM NUMBERS

  Total number of            - Atomic kinds:                                   2
                             - Atoms:                                        145
                             - Shell sets:                                   145
                             - Shells:                                       725
                             - Primitive Cartesian functions:                725
                             - Cartesian basis functions:                   2030
                             - Spherical basis functions:                   1885

  Maximum angular momentum of- Orbital basis functions:                        2
                             - Local part of the GTH pseudopotential:          2
                             - Non-local part of the GTH pseudopotential:      4


 SCF PARAMETERS         Density guess:                                    ATOMIC
                        --------------------------------------------------------
                        max_scf:                                             500
                        max_scf_history:                                       0
                        max_diis:                                              4
                        --------------------------------------------------------
                        eps_scf:                                        5.00E-06
                        eps_scf_history:                                0.00E+00
                        eps_diis:                                       1.00E-01
                        eps_eigval:                                     1.00E-05
                        --------------------------------------------------------
                        level_shift [a.u.]:                             0.000000
                        added MOs                                        80   80
                        --------------------------------------------------------
                        Mixing method:                            BROYDEN_MIXING
                                                charge density mixing in g-space
                        --------------------------------------------------------
                        Smear method:                                FERMI_DIRAC
                        Electronic temperature [K]:                        500.0
                        Electronic temperature [a.u.]:                  1.58E-03
                        Accuracy threshold:                             1.00E-10
                        --------------------------------------------------------
                        Outer loop SCF in use 
                        No variables optimised in outer loop
                        eps_scf                                         1.00E-05
                        max_scf                                               20
                        No outer loop optimization
                        step_size                                       5.00E-01

 -------------------------------------------------------------------------------
 -                                                                             -
 -  BSSE CALCULATION         FRAGMENT CONF: 10        FRAGMENT SUBCONF: 10     -
 -                           CHARGE =     0           MULTIPLICITY =     3     -
 -                                                                             -
 -                 ATOM INDEX                              ATOM NAME           -
 -                 ----------                              ---------           -
 -                      1                                   C                  -
 -                      2                                   C                  -
 -                      3                                   C                  -
 -                      4                                   C                  -
 -                      5                                   C                  -
 -                      6                                   C                  -
 -                      7                                   C                  -
 -                      8                                   C                  -
 -                      9                                   C                  -
 -                     10                                   C                  -
 -                     11                                   C                  -
 -                     12                                   C                  -
 -                     13                                   C                  -
 -                     14                                   C                  -
 -                     15                                   C                  -
 -                     16                                   C                  -
 -                     17                                   C                  -
 -                     18                                   C                  -
 -                     19                                   C                  -
 -                     20                                   C                  -
 -                     21                                   C                  -
 -                     22                                   C                  -
 -                     23                                   C                  -
 -                     24                                   C                  -
 -                     25                                   C                  -
 -                     26                                   C                  -
 -                     27                                   C                  -
 -                     28                                   C                  -
 -                     29                                   C                  -
 -                     30                                   C                  -
 -                     31                                   C                  -
 -                     32                                   C                  -
 -                     33                                   C                  -
 -                     34                                   C                  -
 -                     35                                   C                  -
 -                     36                                   C                  -
 -                     37                                   C                  -
 -                     38                                   C                  -
 -                     39                                   C                  -
 -                     40                                   C                  -
 -                     41                                   C                  -
 -                     42                                   C                  -
 -                     43                                   C                  -
 -                     44                                   C                  -
 -                     45                                   C                  -
 -                     46                                   C                  -
 -                     47                                   C                  -
 -                     48                                   C                  -
 -                     49                                   C                  -
 -                     50                                   C                  -
 -                     51                                   C                  -
 -                     52                                   C                  -
 -                     53                                   C                  -
 -                     54                                   C                  -
 -                     55                                   C                  -
 -                     56                                   C                  -
 -                     57                                   C                  -
 -                     58                                   C                  -
 -                     59                                   C                  -
 -                     60                                   C                  -
 -                     61                                   C                  -
 -                     62                                   C                  -
 -                     63                                   C                  -
 -                     64                                   C                  -
 -                     65                                   C                  -
 -                     66                                   C                  -
 -                     67                                   C                  -
 -                     68                                   C                  -
 -                     69                                   C                  -
 -                     70                                   C                  -
 -                     71                                   C                  -
 -                     72                                   C                  -
 -                     73                                   C                  -
 -                     74                                   C                  -
 -                     75                                   C                  -
 -                     76                                   C                  -
 -                     77                                   C                  -
 -                     78                                   C                  -
 -                     79                                   C                  -
 -                     80                                   C                  -
 -                     81                                   C                  -
 -                     82                                   C                  -
 -                     83                                   C                  -
 -                     84                                   C                  -
 -                     85                                   C                  -
 -                     86                                   C                  -
 -                     87                                   C                  -
 -                     88                                   C                  -
 -                     89                                   C                  -
 -                     90                                   C                  -
 -                     91                                   C                  -
 -                     92                                   C                  -
 -                     93                                   C                  -
 -                     94                                   C                  -
 -                     95                                   C                  -
 -                     96                                   C                  -
 -                     97                                   C                  -
 -                     98                                   C                  -
 -                     99                                   C                  -
 -                    100                                   C                  -
 -                    101                                   C                  -
 -                    102                                   C                  -
 -                    103                                   C                  -
 -                    104                                   C                  -
 -                    105                                   C                  -
 -                    106                                   C                  -
 -                    107                                   C                  -
 -                    108                                   C                  -
 -                    109                                   C                  -
 -                    110                                   C                  -
 -                    111                                   C                  -
 -                    112                                   C                  -
 -                    113                                   C                  -
 -                    114                                   C                  -
 -                    115                                   C                  -
 -                    116                                   C                  -
 -                    117                                   C                  -
 -                    118                                   C                  -
 -                    119                                   C                  -
 -                    120                                   C                  -
 -                    121                                   C                  -
 -                    122                                   C                  -
 -                    123                                   C                  -
 -                    124                                   C                  -
 -                    125                                   C                  -
 -                    126                                   C                  -
 -                    127                                   C                  -
 -                    128                                   C                  -
 -                    129                                   C                  -
 -                    130                                   C                  -
 -                    131                                   C                  -
 -                    132                                   C                  -
 -                    133                                   C                  -
 -                    134                                   C                  -
 -                    135                                   C                  -
 -                    136                                   C                  -
 -                    137                                   C                  -
 -                    138                                   C                  -
 -                    139                                   C                  -
 -                    140                                   C                  -
 -                    141                                   C                  -
 -                    142                                   C                  -
 -                    143                                   C                  -
 -------------------------------------------------------------------------------

 *******************************************************************************
 *******************************************************************************
 **                                                                           **
 **     #####                         ##              ##                      **
 **    ##   ##            ##          ##              ##                      **
 **   ##     ##                       ##            ######                    **
 **   ##     ##  ##   ##  ##   #####  ##  ##   ####   ##    #####    #####    **
 **   ##     ##  ##   ##  ##  ##      ## ##   ##      ##   ##   ##  ##   ##   **
 **   ##  ## ##  ##   ##  ##  ##      ####     ###    ##   ######   ######    **
 **    ##  ###   ##   ##  ##  ##      ## ##      ##   ##   ##       ##        **
 **     #######   #####   ##   #####  ##  ##  ####    ##    #####   ##        **
 **           ##                                                    ##        **
 **                                                                           **
 **                                                ... make the atoms dance   **
 **                                                                           **
 **            Copyright (C) by CP2K developers group (2000-2026)             **
 **                      J. Chem. Phys. 152, 194103 (2020)                    **
 **                                                                           **
 *******************************************************************************


 TOTAL NUMBERS AND MAXIMUM NUMBERS

  Total number of            - Atomic kinds:                                   1
                             - Atoms:                                        143
                             - Shell sets:                                   143
                             - Shells:                                       715
                             - Primitive Cartesian functions:                715
                             - Cartesian basis functions:                   2002
                             - Spherical basis functions:                   1859

  Maximum angular momentum of- Orbital basis functions:                        2
                             - Local part of the GTH pseudopotential:          2
                             - Non-local part of the GTH pseudopotential:      0


 SCF PARAMETERS         Density guess:                                    ATOMIC
                        --------------------------------------------------------
                        max_scf:                                             500
                        max_scf_history:                                       0
                        max_diis:                                              4
                        --------------------------------------------------------
                        eps_scf:                                        5.00E-06
                        eps_scf_history:                                0.00E+00
                        eps_diis:                                       1.00E-01
                        eps_eigval:                                     1.00E-05
                        --------------------------------------------------------
                        level_shift [a.u.]:                             0.000000
                        added MOs                                        80   80
                        --------------------------------------------------------
                        Mixing method:                            BROYDEN_MIXING
                                                charge density mixing in g-space
                        --------------------------------------------------------
                        Smear method:                                FERMI_DIRAC
                        Electronic temperature [K]:                        500.0
                        Electronic temperature [a.u.]:                  1.58E-03
                        Accuracy threshold:                             1.00E-10
                        --------------------------------------------------------
                        Outer loop SCF in use 
                        No variables optimised in outer loop
                        eps_scf                                         1.00E-05
                        max_scf                                               20
                        No outer loop optimization
                        step_size                                       5.00E-01

 Extrapolation method: initial_guess

 Spin 1

 Number of electrons:                                                        287
 Number of occupied orbitals:                                                287
 Number of molecular orbitals:                                               367

 Spin 2

 Number of electrons:                                                        285
 Number of occupied orbitals:                                                285
 Number of molecular orbitals:                                               365

 Number of orbital functions:                                               1859
 Number of independent orbital functions:                                   1859


 SCF WAVEFUNCTION OPTIMIZATION

  Step     Update method      Time    Convergence         Total energy    Change
  ------------------------------------------------------------------------------
     1 NoMix/Diag. 0.20E+00    1.2     0.46593095      -808.9646131687 -8.09E+02
     2 Broy./Diag. 0.20E+00    1.4     0.32780403      -781.2273479256  2.77E+01
     3 Broy./Diag. 0.20E+00    1.4     0.34134522      -792.0858614730 -1.09E+01
     4 Broy./Diag. 0.20E+00    1.4     0.01559053      -811.4016319069 -1.93E+01
     5 Broy./Diag. 0.20E+00    1.4     0.05026978      -817.9383893961 -6.54E+00
     6 Broy./Diag. 0.20E+00    1.4     0.03180444      -817.0640373198  8.74E-01
     7 Broy./Diag. 0.20E+00    1.4     0.44651108      -815.2750563780  1.79E+00
     8 Broy./Diag. 0.20E+00    1.5     0.41750566      -813.8418336551  1.43E+00
     9 Broy./Diag. 0.20E+00    1.5     0.07034314      -814.3990672567 -5.57E-01
    10 Broy./Diag. 0.20E+00    1.5     0.08565485      -814.2411998215  1.58E-01
    11 Broy./Diag. 0.20E+00    1.5     0.06128372      -814.1414260975  9.98E-02
    12 Broy./Diag. 0.20E+00    1.5     0.03951994      -814.1468360138 -5.41E-03
    13 Broy./Diag. 0.20E+00    1.5     0.02258832      -814.1023457121  4.45E-02
    14 Broy./Diag. 0.20E+00    1.5     0.00434802      -814.0913477294  1.10E-02
    15 Broy./Diag. 0.20E+00    1.5     0.01719856      -814.1046248260 -1.33E-02
    16 Broy./Diag. 0.20E+00    1.5     0.02941063      -814.0946532146  9.97E-03
    17 Broy./Diag. 0.20E+00    1.5     0.04505929      -814.0757386784  1.89E-02
    18 Broy./Diag. 0.20E+00    1.5     0.08493709      -814.0522171645  2.35E-02
    19 Broy./Diag. 0.20E+00    1.5     0.01556848      -813.9795068435  7.27E-02
    20 Broy./Diag. 0.20E+00    1.5     0.02123902      -813.9751770710  4.33E-03
    21 Broy./Diag. 0.20E+00    1.5     0.01117271      -813.9274269379  4.78E-02
    22 Broy./Diag. 0.20E+00    1.5     0.02237517      -813.9111595513  1.63E-02
    23 Broy./Diag. 0.20E+00    1.5     0.01601902      -813.8753351537  3.58E-02
    24 Broy./Diag. 0.20E+00    1.5     0.01462720      -813.8861543933 -1.08E-02
    25 Broy./Diag. 0.20E+00    1.5     0.03454576      -813.9419297270 -5.58E-02
    26 Broy./Diag. 0.20E+00    1.6     0.07957049      -814.0502674042 -1.08E-01
    27 Broy./Diag. 0.20E+00    1.5     0.12871808      -814.1708027867 -1.21E-01
    28 Broy./Diag. 0.20E+00    1.5     0.14160672      -814.2624243598 -9.16E-02
    29 Broy./Diag. 0.20E+00    1.5     0.08002344      -814.1463209378  1.16E-01
    30 Broy./Diag. 0.20E+00    1.5     0.18166194      -814.1094348574  3.69E-02
    31 Broy./Diag. 0.20E+00    1.5     0.15040370      -814.2470737120 -1.38E-01
    32 Broy./Diag. 0.20E+00    1.5     0.08074164      -814.1802782297  6.68E-02
    33 Broy./Diag. 0.20E+00    1.5     0.02212839      -814.1978188266 -1.75E-02
    34 Broy./Diag. 0.20E+00    1.5     0.06277688      -814.1727195463  2.51E-02
    35 Broy./Diag. 0.20E+00    1.5     0.08599572      -814.1476550205  2.51E-02
    36 Broy./Diag. 0.20E+00    1.5     0.00567539      -814.1156169651  3.20E-02
    37 Broy./Diag. 0.20E+00    1.5     0.02043570      -814.1195427671 -3.93E-03
    38 Broy./Diag. 0.20E+00    1.5     0.05410084      -814.1281413127 -8.60E-03
    39 Broy./Diag. 0.20E+00    1.5     0.01034942      -814.0725464419  5.56E-02
    40 Broy./Diag. 0.20E+00    1.5     0.01618367      -814.0839627625 -1.14E-02
    41 Broy./Diag. 0.20E+00    1.6     0.00704280      -814.0813474410  2.62E-03
    42 Broy./Diag. 0.20E+00    1.6     0.01204936      -814.0766495353  4.70E-03
    43 Broy./Diag. 0.20E+00    1.7     0.02505976      -814.0635575294  1.31E-02
    44 Broy./Diag. 0.20E+00    1.7     0.03915771      -814.0976934576 -3.41E-02
    45 Broy./Diag. 0.20E+00    1.6     0.00607297      -814.1408279831 -4.31E-02
    46 Broy./Diag. 0.20E+00    1.7     0.01499988      -814.1467676527 -5.94E-03
    47 Broy./Diag. 0.20E+00    1.7     0.00611747      -814.1605303139 -1.38E-02
    48 Broy./Diag. 0.20E+00    1.6     0.01256692      -814.1546898252  5.84E-03
    49 Broy./Diag. 0.20E+00    1.6     0.00539431      -814.1673802464 -1.27E-02
    50 Broy./Diag. 0.20E+00    1.6     0.00577148      -814.1613198448  6.06E-03
    51 Broy./Diag. 0.20E+00    1.6     0.00171555      -814.1575275617  3.79E-03
    52 Broy./Diag. 0.20E+00    1.6     0.00359394      -814.1568019627  7.26E-04
    53 Broy./Diag. 0.20E+00    1.6     0.00204875      -814.1611281798 -4.33E-03
    54 Broy./Diag. 0.20E+00    1.7     0.00745775      -814.1644218436 -3.29E-03
    55 Broy./Diag. 0.20E+00    1.7     0.01425325      -814.1613078440  3.11E-03
    56 Broy./Diag. 0.20E+00    1.7     0.01849860      -814.1589701517  2.34E-03
    57 Broy./Diag. 0.20E+00    1.7     0.01118405      -814.1445477029  1.44E-02
    58 Broy./Diag. 0.20E+00    1.6     0.01360839      -814.1590948930 -1.45E-02
    59 Broy./Diag. 0.20E+00    1.6     0.00659198      -814.1587895778  3.05E-04
    60 Broy./Diag. 0.20E+00    1.7     0.02027269      -814.1659697854 -7.18E-03
    61 Broy./Diag. 0.20E+00    1.7     0.02095733      -814.1564032247  9.57E-03
    62 Broy./Diag. 0.20E+00    1.6     0.00869728      -814.1643284266 -7.93E-03
    63 Broy./Diag. 0.20E+00    1.6     0.00841519      -814.1617371363  2.59E-03
    64 Broy./Diag. 0.20E+00    1.6     0.01146572      -814.1646906810 -2.95E-03
    65 Broy./Diag. 0.20E+00    1.7     0.02380710      -814.1634485705  1.24E-03
    66 Broy./Diag. 0.20E+00    1.6     0.00852776      -814.1557650951  7.68E-03
    67 Broy./Diag. 0.20E+00    1.7     0.01015593      -814.1643553296 -8.59E-03
    68 Broy./Diag. 0.20E+00    1.6     0.00422333      -814.1579815871  6.37E-03
    69 Broy./Diag. 0.20E+00    1.6     0.00643674      -814.1557462220  2.24E-03
    70 Broy./Diag. 0.20E+00    1.7     0.00264119      -814.1526739972  3.07E-03
    71 Broy./Diag. 0.20E+00    1.6     0.01202429      -814.1535680646 -8.94E-04
    72 Broy./Diag. 0.20E+00    1.6     0.00227294      -814.1644152524 -1.08E-02
    73 Broy./Diag. 0.20E+00    1.6     0.00446551      -814.1663164829 -1.90E-03
    74 Broy./Diag. 0.20E+00    1.6     0.00759513      -814.1625104895  3.81E-03
    75 Broy./Diag. 0.20E+00    1.6     0.00263447      -814.1644847434 -1.97E-03
    76 Broy./Diag. 0.20E+00    1.7     0.00179352      -814.1629578821  1.53E-03
    77 Broy./Diag. 0.20E+00    1.6     0.00224037      -814.1620812622  8.77E-04
    78 Broy./Diag. 0.20E+00    1.6     0.00116329      -814.1611147939  9.66E-04
    79 Broy./Diag. 0.20E+00    1.6     0.00490650      -814.1629929651 -1.88E-03
    80 Broy./Diag. 0.20E+00    1.6     0.00498378      -814.1597645744  3.23E-03
    81 Broy./Diag. 0.20E+00    1.7     0.00203566      -814.1549228935  4.84E-03
    82 Broy./Diag. 0.20E+00    1.6     0.00542749      -814.1559548689 -1.03E-03
    83 Broy./Diag. 0.20E+00    1.6     0.00415181      -814.1601232974 -4.17E-03
    84 Broy./Diag. 0.20E+00    1.6     0.00280245      -814.1551240406  5.00E-03
    85 Broy./Diag. 0.20E+00    1.7     0.00104400      -814.1595231314 -4.40E-03
    86 Broy./Diag. 0.20E+00    1.7     0.00914418      -814.1642060376 -4.68E-03
    87 Broy./Diag. 0.20E+00    1.7     0.00891714      -814.1733563401 -9.15E-03
    88 Broy./Diag. 0.20E+00    1.7     0.00164090      -814.1744981792 -1.14E-03
    89 Broy./Diag. 0.20E+00    1.6     0.00105182      -814.1714345605  3.06E-03
    90 Broy./Diag. 0.20E+00    1.6     0.00253454      -814.1705119385  9.23E-04
    91 Broy./Diag. 0.20E+00    1.6     0.00005153      -814.1690335283  1.48E-03
    92 Broy./Diag. 0.20E+00    1.6     0.00102779      -814.1693870023 -3.53E-04
    93 Broy./Diag. 0.20E+00    1.6     0.00139359      -814.1694160093 -2.90E-05
    94 Broy./Diag. 0.20E+00    1.6     0.00014589      -814.1697479920 -3.32E-04
    95 Broy./Diag. 0.20E+00    1.6     0.00032875      -814.1698790342 -1.31E-04
    96 Broy./Diag. 0.20E+00    1.6     0.00133490      -814.1700158028 -1.37E-04
    97 Broy./Diag. 0.20E+00    1.6     0.00214205      -814.1703270060 -3.11E-04
    98 Broy./Diag. 0.20E+00    1.6     0.00450964      -814.1700148417  3.12E-04
    99 Broy./Diag. 0.20E+00    1.6     0.00304945      -814.1694864529  5.28E-04
   100 Broy./Diag. 0.20E+00    1.7     0.00059630      -814.1698163465 -3.30E-04
   101 Broy./Diag. 0.20E+00    1.6     0.00034711      -814.1698549042 -3.86E-05
   102 Broy./Diag. 0.20E+00    1.6     0.00085888      -814.1699111888 -5.63E-05
   103 Broy./Diag. 0.20E+00    1.6     0.00372973      -814.1705330090 -6.22E-04
   104 Broy./Diag. 0.20E+00    1.7     0.00442944      -814.1697648758  7.68E-04
   105 Broy./Diag. 0.20E+00    1.6     0.00153495      -814.1704282265 -6.63E-04
   106 Broy./Diag. 0.20E+00    1.7     0.00027880      -814.1706574302 -2.29E-04
   107 Broy./Diag. 0.20E+00    1.6     0.00010024      -814.1707323575 -7.49E-05
   108 Broy./Diag. 0.20E+00    1.6     0.00710170      -814.1712799420 -5.48E-04
   109 Broy./Diag. 0.20E+00    1.6     0.00330749      -814.1717684089 -4.88E-04
   110 Broy./Diag. 0.20E+00    1.6     0.00200413      -814.1703887258  1.38E-03
   111 Broy./Diag. 0.20E+00    1.6     0.00162285      -814.1713851920 -9.96E-04
   112 Broy./Diag. 0.20E+00    1.6     0.00098886      -814.1707592341  6.26E-04
   113 Broy./Diag. 0.20E+00    1.6     0.00365653      -814.1714781195 -7.19E-04
   114 Broy./Diag. 0.20E+00    1.7     0.00314498      -814.1732144424 -1.74E-03
   115 Broy./Diag. 0.20E+00    1.6     0.00357438      -814.1721107679  1.10E-03
   116 Broy./Diag. 0.20E+00    1.6     0.00136121      -814.1718048317  3.06E-04
   117 Broy./Diag. 0.20E+00    1.6     0.00296265      -814.1722126623 -4.08E-04
   118 Broy./Diag. 0.20E+00    1.6     0.00166429      -814.1722150918 -2.43E-06
   119 Broy./Diag. 0.20E+00    1.6     0.00206337      -814.1726996016 -4.85E-04
   120 Broy./Diag. 0.20E+00    1.6     0.00403864      -814.1728285440 -1.29E-04
   121 Broy./Diag. 0.20E+00    1.6     0.00055892      -814.1721871190  6.41E-04
   122 Broy./Diag. 0.20E+00    1.6     0.00075801      -814.1716798534  5.07E-04
   123 Broy./Diag. 0.20E+00    1.6     0.00488277      -814.1720574483 -3.78E-04
   124 Broy./Diag. 0.20E+00    1.6     0.00158492      -814.1708701279  1.19E-03
   125 Broy./Diag. 0.20E+00    1.6     0.00047883      -814.1719503581 -1.08E-03
   126 Broy./Diag. 0.20E+00    1.6     0.00135321      -814.1721649815 -2.15E-04
   127 Broy./Diag. 0.20E+00    1.6     0.00206551      -814.1719852062  1.80E-04
   128 Broy./Diag. 0.20E+00    1.7     0.00261429      -814.1720331444 -4.79E-05
   129 Broy./Diag. 0.20E+00    1.7     0.00202588      -814.1722255489 -1.92E-04
   130 Broy./Diag. 0.20E+00    1.6     0.00178428      -814.1727190131 -4.93E-04
   131 Broy./Diag. 0.20E+00    1.6     0.00358845      -814.1716788125  1.04E-03
   132 Broy./Diag. 0.20E+00    1.6     0.00210773      -814.1718993579 -2.21E-04
   133 Broy./Diag. 0.20E+00    1.7     0.00264641      -814.1713495949  5.50E-04
   134 Broy./Diag. 0.20E+00    1.6     0.00257268      -814.1705438197  8.06E-04
   135 Broy./Diag. 0.20E+00    1.7     0.00298270      -814.1713406963 -7.97E-04
   136 Broy./Diag. 0.20E+00    1.6     0.00032597      -814.1708487784  4.92E-04
   137 Broy./Diag. 0.20E+00    1.6     0.00022011      -814.1708036789  4.51E-05
   138 Broy./Diag. 0.20E+00    1.6     0.00443160      -814.1709363685 -1.33E-04
   139 Broy./Diag. 0.20E+00    1.6     0.00950441      -814.1707697424  1.67E-04
   140 Broy./Diag. 0.20E+00    1.6     0.00215064      -814.1696841776  1.09E-03
   141 Broy./Diag. 0.20E+00    1.6     0.00016956      -814.1709945034 -1.31E-03
   142 Broy./Diag. 0.20E+00    1.6     0.00327375      -814.1707960654  1.98E-04
   143 Broy./Diag. 0.20E+00    1.6     0.00135998      -814.1713502604 -5.54E-04
   144 Broy./Diag. 0.20E+00    1.6     0.00176903      -814.1706986849  6.52E-04
   145 Broy./Diag. 0.20E+00    1.6     0.00347659      -814.1708292662 -1.31E-04
   146 Broy./Diag. 0.20E+00    1.6     0.00286032      -814.1705033759  3.26E-04
   147 Broy./Diag. 0.20E+00    1.6     0.00134436      -814.1708356300 -3.32E-04
   148 Broy./Diag. 0.20E+00    1.6     0.00455874      -814.1713928755 -5.57E-04
   149 Broy./Diag. 0.20E+00    1.7     0.00133525      -814.1700456976  1.35E-03
   150 Broy./Diag. 0.20E+00    1.6     0.00239442      -814.1702434398 -1.98E-04
   151 Broy./Diag. 0.20E+00    1.6     0.00434503      -814.1694419173  8.02E-04
   152 Broy./Diag. 0.20E+00    1.6     0.00173984      -814.1704166022 -9.75E-04
   153 Broy./Diag. 0.20E+00    1.6     0.00145124      -814.1701024649  3.14E-04
   154 Broy./Diag. 0.20E+00    1.6     0.00060148      -814.1704121728 -3.10E-04
   155 Broy./Diag. 0.20E+00    1.7     0.00243772      -814.1706293248 -2.17E-04
   156 Broy./Diag. 0.20E+00    1.6     0.00589834      -814.1713711650 -7.42E-04
   157 Broy./Diag. 0.20E+00    1.7     0.00070721      -814.1731299983 -1.76E-03
   158 Broy./Diag. 0.20E+00    1.6     0.00174625      -814.1730230019  1.07E-04
   159 Broy./Diag. 0.20E+00    1.6     0.00259897      -814.1733354038 -3.12E-04
   160 Broy./Diag. 0.20E+00    1.6     0.00615516      -814.1728700118  4.65E-04
   161 Broy./Diag. 0.20E+00    1.6     0.00344544      -814.1736001990 -7.30E-04
   162 Broy./Diag. 0.20E+00    1.6     0.00070753      -814.1733308732  2.69E-04
   163 Broy./Diag. 0.20E+00    1.6     0.00558309      -814.1734507468 -1.20E-04
   164 Broy./Diag. 0.20E+00    1.6     0.00433178      -814.1722187008  1.23E-03
   165 Broy./Diag. 0.20E+00    1.7     0.00167024      -814.1729363595 -7.18E-04
   166 Broy./Diag. 0.20E+00    1.6     0.00041348      -814.1729672196 -3.09E-05
   167 Broy./Diag. 0.20E+00    1.6     0.00295558      -814.1731915190 -2.24E-04
   168 Broy./Diag. 0.20E+00    1.6     0.00110893      -814.1728664973  3.25E-04
   169 Broy./Diag. 0.20E+00    1.6     0.00129022      -814.1740116893 -1.15E-03
   170 Broy./Diag. 0.20E+00    1.6     0.00145966      -814.1733884067  6.23E-04
   171 Broy./Diag. 0.20E+00    1.6     0.00109609      -814.1739431489 -5.55E-04
   172 Broy./Diag. 0.20E+00    1.7     0.00109175      -814.1745915987 -6.48E-04
   173 Broy./Diag. 0.20E+00    1.6     0.00054919      -814.1744774943  1.14E-04
   174 Broy./Diag. 0.20E+00    1.6     0.00130246      -814.1747293207 -2.52E-04
   175 Broy./Diag. 0.20E+00    1.6     0.00108704      -814.1763585301 -1.63E-03
   176 Broy./Diag. 0.20E+00    1.6     0.00121955      -814.1767969281 -4.38E-04
   177 Broy./Diag. 0.20E+00    1.6     0.00177122      -814.1771397079 -3.43E-04
   178 Broy./Diag. 0.20E+00    1.6     0.00073710      -814.1766359437  5.04E-04
   179 Broy./Diag. 0.20E+00    1.6     0.00142109      -814.1750596712  1.58E-03
   180 Broy./Diag. 0.20E+00    1.6     0.00104613      -814.1725015098  2.56E-03
   181 Broy./Diag. 0.20E+00    1.6     0.00202445      -814.1715644229  9.37E-04
   182 Broy./Diag. 0.20E+00    1.6     0.00046523      -814.1708976254  6.67E-04
   183 Broy./Diag. 0.20E+00    1.6     0.00122943      -814.1710895195 -1.92E-04
   184 Broy./Diag. 0.20E+00    1.6     0.00127670      -814.1707003294  3.89E-04
   185 Broy./Diag. 0.20E+00    1.6     0.00052015      -814.1711125815 -4.12E-04
   186 Broy./Diag. 0.20E+00    1.6     0.00082289      -814.1706387836  4.74E-04
   187 Broy./Diag. 0.20E+00    1.6     0.00110910      -814.1708781514 -2.39E-04
   188 Broy./Diag. 0.20E+00    1.6     0.00037050      -814.1708870155 -8.86E-06
   189 Broy./Diag. 0.20E+00    1.6     0.00127841      -814.1704801063  4.07E-04
   190 Broy./Diag. 0.20E+00    1.6     0.00069785      -814.1704481425  3.20E-05
   191 Broy./Diag. 0.20E+00    1.6     0.00104194      -814.1704365093  1.16E-05
   192 Broy./Diag. 0.20E+00    1.6     0.00190636      -814.1698352643  6.01E-04
   193 Broy./Diag. 0.20E+00    1.6     0.00071420      -814.1692840655  5.51E-04
   194 Broy./Diag. 0.20E+00    1.6     0.00055318      -814.1695892484 -3.05E-04
   195 Broy./Diag. 0.20E+00    1.6     0.00204069      -814.1695088395  8.04E-05
   196 Broy./Diag. 0.20E+00    1.6     0.00087629      -814.1700248667 -5.16E-04
   197 Broy./Diag. 0.20E+00    1.6     0.00096718      -814.1698152091  2.10E-04
   198 Broy./Diag. 0.20E+00    1.6     0.00065999      -814.1699209304 -1.06E-04
   199 Broy./Diag. 0.20E+00    1.6     0.00213380      -814.1695088696  4.12E-04
   200 Broy./Diag. 0.20E+00    1.6     0.00026662      -814.1701795981 -6.71E-04
   201 Broy./Diag. 0.20E+00    1.6     0.00099890      -814.1698371455  3.42E-04
   202 Broy./Diag. 0.20E+00    1.6     0.00234233      -814.1698938225 -5.67E-05
   203 Broy./Diag. 0.20E+00    1.6     0.00198887      -814.1699836833 -8.99E-05
   204 Broy./Diag. 0.20E+00    1.6     0.00093250      -814.1697319789  2.52E-04
   205 Broy./Diag. 0.20E+00    1.6     0.00444708      -814.1694591232  2.73E-04
   206 Broy./Diag. 0.20E+00    1.6     0.00234562      -814.1702862794 -8.27E-04
   207 Broy./Diag. 0.20E+00    1.6     0.01997016      -814.1708152469 -5.29E-04
   208 Broy./Diag. 0.20E+00    1.6     0.00307000      -814.1721985720 -1.38E-03
   209 Broy./Diag. 0.20E+00    1.6     0.00076192      -814.1721349670  6.36E-05
   210 Broy./Diag. 0.20E+00    1.6     0.00191979      -814.1724304587 -2.95E-04
   211 Broy./Diag. 0.20E+00    1.6     0.00272873      -814.1727861798 -3.56E-04
   212 Broy./Diag. 0.20E+00    1.7     0.00670394      -814.1728941439 -1.08E-04
   213 Broy./Diag. 0.20E+00    1.6     0.00221355      -814.1717392361  1.15E-03
   214 Broy./Diag. 0.20E+00    1.7     0.00452175      -814.1724323737 -6.93E-04
   215 Broy./Diag. 0.20E+00    1.6     0.00146278      -814.1718342569  5.98E-04
   216 Broy./Diag. 0.20E+00    1.6     0.00193794      -814.1721419981 -3.08E-04
   217 Broy./Diag. 0.20E+00    1.6     0.00147713      -814.1746382988 -2.50E-03
   218 Broy./Diag. 0.20E+00    1.6     0.00460106      -814.1752935227 -6.55E-04
   219 Broy./Diag. 0.20E+00    1.6     0.00216282      -814.1738800752  1.41E-03
   220 Broy./Diag. 0.20E+00    1.6     0.00201660      -814.1726236074  1.26E-03
   221 Broy./Diag. 0.20E+00    1.6     0.00076704      -814.1715591302  1.06E-03
   222 Broy./Diag. 0.20E+00    1.6     0.00369771      -814.1709795589  5.80E-04
   223 Broy./Diag. 0.20E+00    1.6     0.00167765      -814.1700832653  8.96E-04
   224 Broy./Diag. 0.20E+00    1.6     0.00476125      -814.1708390464 -7.56E-04
   225 Broy./Diag. 0.20E+00    1.6     0.00149413      -814.1712850569 -4.46E-04
   226 Broy./Diag. 0.20E+00    1.6     0.00064912      -814.1714052962 -1.20E-04
   227 Broy./Diag. 0.20E+00    1.6     0.00341580      -814.1712791088  1.26E-04
   228 Broy./Diag. 0.20E+00    1.6     0.00189588      -814.1716787117 -4.00E-04
   229 Broy./Diag. 0.20E+00    1.6     0.00171201      -814.1713872615  2.91E-04
   230 Broy./Diag. 0.20E+00    1.6     0.00324418      -814.1716064916 -2.19E-04
   231 Broy./Diag. 0.20E+00    1.6     0.00105437      -814.1721748970 -5.68E-04
   232 Broy./Diag. 0.20E+00    1.6     0.00320477      -814.1719782787  1.97E-04
   233 Broy./Diag. 0.20E+00    1.6     0.00983940      -814.1720323046 -5.40E-05
   234 Broy./Diag. 0.20E+00    1.6     0.04235233      -814.1717654432  2.67E-04
   235 Broy./Diag. 0.20E+00    1.6     0.00343924      -814.1748601404 -3.09E-03
   236 Broy./Diag. 0.20E+00    1.6     0.00755318      -814.1742072264  6.53E-04
   237 Broy./Diag. 0.20E+00    1.6     0.01782633      -814.1735315126  6.76E-04
   238 Broy./Diag. 0.20E+00    1.6     0.00844790      -814.1744277601 -8.96E-04
   239 Broy./Diag. 0.20E+00    1.6     0.00135939      -814.1739169504  5.11E-04
   240 Broy./Diag. 0.20E+00    1.6     0.01395192      -814.1756060886 -1.69E-03
   241 Broy./Diag. 0.20E+00    1.6     0.00357623      -814.1775057029 -1.90E-03
   242 Broy./Diag. 0.20E+00    1.6     0.01029119      -814.1765143542  9.91E-04
   243 Broy./Diag. 0.20E+00    1.6     0.00392763      -814.1750432138  1.47E-03
   244 Broy./Diag. 0.20E+00    1.6     0.02117873      -814.1730198101  2.02E-03
   245 Broy./Diag. 0.20E+00    1.6     0.00079704      -814.1712213469  1.80E-03
   246 Broy./Diag. 0.20E+00    1.6     0.01719500      -814.1724979206 -1.28E-03
   247 Broy./Diag. 0.20E+00    1.6     0.00368479      -814.1745264471 -2.03E-03
   248 Broy./Diag. 0.20E+00    1.6     0.00385932      -814.1742534523  2.73E-04
   249 Broy./Diag. 0.20E+00    1.6     0.00209261      -814.1748675565 -6.14E-04
   250 Broy./Diag. 0.20E+00    1.6     0.02434519      -814.1745980458  2.70E-04
   251 Broy./Diag. 0.20E+00    1.6     0.00704277      -814.1729161527  1.68E-03
   252 Broy./Diag. 0.20E+00    1.6     0.00122871      -814.1723987190  5.17E-04
   253 Broy./Diag. 0.20E+00    1.6     0.00226621      -814.1740174949 -1.62E-03
   254 Broy./Diag. 0.20E+00    1.6     0.00676325      -814.1735998418  4.18E-04
   255 Broy./Diag. 0.20E+00    1.6     0.00209586      -814.1727003818  8.99E-04
   256 Broy./Diag. 0.20E+00    1.6     0.00688370      -814.1730705437 -3.70E-04
   257 Broy./Diag. 0.20E+00    1.6     0.00151313      -814.1732569281 -1.86E-04
   258 Broy./Diag. 0.20E+00    1.6     0.00295460      -814.1736139940 -3.57E-04
   259 Broy./Diag. 0.20E+00    1.6     0.01250076      -814.1730366720  5.77E-04
   260 Broy./Diag. 0.20E+00    1.6     0.00469814      -814.1714277301  1.61E-03
   261 Broy./Diag. 0.20E+00    1.6     0.00239650      -814.1723143033 -8.87E-04
   262 Broy./Diag. 0.20E+00    1.6     0.00421644      -814.1716807106  6.34E-04
   263 Broy./Diag. 0.20E+00    1.6     0.00568269      -814.1712223939  4.58E-04
   264 Broy./Diag. 0.20E+00    1.6     0.00799780      -814.1719464852 -7.24E-04
   265 Broy./Diag. 0.20E+00    1.6     0.00673054      -814.1728378429 -8.91E-04
   266 Broy./Diag. 0.20E+00    1.6     0.00102280      -814.1722877434  5.50E-04
   267 Broy./Diag. 0.20E+00    1.6     0.00847265      -814.1719770258  3.11E-04
   268 Broy./Diag. 0.20E+00    1.6     0.01274316      -814.1729880890 -1.01E-03
   269 Broy./Diag. 0.20E+00    1.6     0.02306436      -814.1741432081 -1.16E-03
   270 Broy./Diag. 0.20E+00    1.6     0.00187885      -814.1758994630 -1.76E-03
   271 Broy./Diag. 0.20E+00    1.6     0.01250381      -814.1752641253  6.35E-04
   272 Broy./Diag. 0.20E+00    1.6     0.00298511      -814.1742047058  1.06E-03
   273 Broy./Diag. 0.20E+00    1.6     0.00643014      -814.1747455692 -5.41E-04
   274 Broy./Diag. 0.20E+00    1.6     0.00550670      -814.1736366094  1.11E-03
   275 Broy./Diag. 0.20E+00    1.6     0.00519091      -814.1745256709 -8.89E-04
   276 Broy./Diag. 0.20E+00    1.6     0.00739224      -814.1737638384  7.62E-04
   277 Broy./Diag. 0.20E+00    1.6     0.00441949      -814.1747233486 -9.60E-04
   278 Broy./Diag. 0.20E+00    1.6     0.00640845      -814.1742501826  4.73E-04
   279 Broy./Diag. 0.20E+00    1.7     0.01239555      -814.1737802702  4.70E-04
   280 Broy./Diag. 0.20E+00    1.6     0.02156918      -814.1741058049 -3.26E-04
   281 Broy./Diag. 0.20E+00    1.6     0.00649952      -814.1706010827  3.50E-03
   282 Broy./Diag. 0.20E+00    1.6     0.00064323      -814.1691729960  1.43E-03
   283 Broy./Diag. 0.20E+00    1.6     0.01740734      -814.1683146944  8.58E-04
   284 Broy./Diag. 0.20E+00    1.6     0.03233365      -814.1696724087 -1.36E-03
   285 Broy./Diag. 0.20E+00    1.6     0.03177134      -814.1747244805 -5.05E-03
   286 Broy./Diag. 0.20E+00    1.6     0.01943627      -814.1754953496 -7.71E-04
   287 Broy./Diag. 0.20E+00    1.6     0.02777741      -814.1777286335 -2.23E-03
   288 Broy./Diag. 0.20E+00    1.6     0.00245973      -814.1763391270  1.39E-03
   289 Broy./Diag. 0.20E+00    1.6     0.00393405      -814.1769679683 -6.29E-04
   290 Broy./Diag. 0.20E+00    1.6     0.01906198      -814.1772230332 -2.55E-04
   291 Broy./Diag. 0.20E+00    1.6     0.00214049      -814.1774006754 -1.78E-04
   292 Broy./Diag. 0.20E+00    1.6     0.00437566      -814.1777915261 -3.91E-04
   293 Broy./Diag. 0.20E+00    1.6     0.00284356      -814.1787037138 -9.12E-04
   294 Broy./Diag. 0.20E+00    1.6     0.00281763      -814.1786585784  4.51E-05
   295 Broy./Diag. 0.20E+00    1.6     0.00619670      -814.1786883525 -2.98E-05
   296 Broy./Diag. 0.20E+00    1.6     0.00722807      -814.1763177607  2.37E-03
   297 Broy./Diag. 0.20E+00    1.6     0.00288143      -814.1747849014  1.53E-03
   298 Broy./Diag. 0.20E+00    1.6     0.00433201      -814.1731330353  1.65E-03
   299 Broy./Diag. 0.20E+00    1.6     0.01567579      -814.1729400582  1.93E-04
   300 Broy./Diag. 0.20E+00    1.6     0.00649585      -814.1696622856  3.28E-03
   301 Broy./Diag. 0.20E+00    1.6     0.01236074      -814.1703582359 -6.96E-04
   302 Broy./Diag. 0.20E+00    1.6     0.01666599      -814.1687738165  1.58E-03
   303 Broy./Diag. 0.20E+00    1.6     0.00143637      -814.1720077079 -3.23E-03
   304 Broy./Diag. 0.20E+00    1.6     0.00268316      -814.1717421640  2.66E-04
   305 Broy./Diag. 0.20E+00    1.6     0.00333977      -814.1715099367  2.32E-04
   306 Broy./Diag. 0.20E+00    1.6     0.00833683      -814.1718849460 -3.75E-04
   307 Broy./Diag. 0.20E+00    1.6     0.03534625      -814.1728239985 -9.39E-04
   308 Broy./Diag. 0.20E+00    1.6     0.01175928      -814.1731592161 -3.35E-04
   309 Broy./Diag. 0.20E+00    1.6     0.02545420      -814.1718014171  1.36E-03
   310 Broy./Diag. 0.20E+00    1.6     0.01551232      -814.1676962988  4.11E-03
   311 Broy./Diag. 0.20E+00    1.6     0.00744046      -814.1710819923 -3.39E-03
   312 Broy./Diag. 0.20E+00    1.6     0.00662465      -814.1672692587  3.81E-03
   313 Broy./Diag. 0.20E+00    1.6     0.00187943      -814.1683442590 -1.08E-03
   314 Broy./Diag. 0.20E+00    1.6     0.00498829      -814.1699667040 -1.62E-03
   315 Broy./Diag. 0.20E+00    1.6     0.00460825      -814.1698062718  1.60E-04
   316 Broy./Diag. 0.20E+00    1.6     0.00278536      -814.1695247668  2.82E-04
   317 Broy./Diag. 0.20E+00    1.6     0.01245609      -814.1683280555  1.20E-03
   318 Broy./Diag. 0.20E+00    1.6     0.01109464      -814.1648028666  3.53E-03
   319 Broy./Diag. 0.20E+00    1.6     0.00916056      -814.1637533489  1.05E-03
   320 Broy./Diag. 0.20E+00    1.6     0.01473741      -814.1649228506 -1.17E-03
   321 Broy./Diag. 0.20E+00    1.6     0.00490773      -814.1639573649  9.65E-04
   322 Broy./Diag. 0.20E+00    1.6     0.00430921      -814.1607852918  3.17E-03
   323 Broy./Diag. 0.20E+00    1.6     0.00393603      -814.1630188176 -2.23E-03
   324 Broy./Diag. 0.20E+00    1.6     0.00315469      -814.1628566763  1.62E-04
   325 Broy./Diag. 0.20E+00    1.6     0.00412781      -814.1621474246  7.09E-04
   326 Broy./Diag. 0.20E+00    1.6     0.00507943      -814.1603362177  1.81E-03
   327 Broy./Diag. 0.20E+00    1.6     0.00563837      -814.1564101358  3.93E-03
   328 Broy./Diag. 0.20E+00    1.6     0.00114062      -814.1531735426  3.24E-03
   329 Broy./Diag. 0.20E+00    1.6     0.00225265      -814.1541428326 -9.69E-04
   330 Broy./Diag. 0.20E+00    1.6     0.01796255      -814.1548031365 -6.60E-04
   331 Broy./Diag. 0.20E+00    1.6     0.00523179      -814.1564101013 -1.61E-03
   332 Broy./Diag. 0.20E+00    1.6     0.00322370      -814.1569117282 -5.02E-04
   333 Broy./Diag. 0.20E+00    1.6     0.00062856      -814.1562315336  6.80E-04
   334 Broy./Diag. 0.20E+00    1.6     0.00126566      -814.1569509769 -7.19E-04
   335 Broy./Diag. 0.20E+00    1.6     0.00102302      -814.1589169901 -1.97E-03
   336 Broy./Diag. 0.20E+00    1.6     0.00561077      -814.1622889728 -3.37E-03
   337 Broy./Diag. 0.20E+00    1.6     0.00765039      -814.1603670197  1.92E-03
   338 Broy./Diag. 0.20E+00    1.6     0.00462556      -814.1573832482  2.98E-03
   339 Broy./Diag. 0.20E+00    1.6     0.00771882      -814.1548968501  2.49E-03
   340 Broy./Diag. 0.20E+00    1.6     0.00110124      -814.1494028176  5.49E-03
   341 Broy./Diag. 0.20E+00    1.6     0.00311456      -814.1447823800  4.62E-03
   342 Broy./Diag. 0.20E+00    1.6     0.00100794      -814.1412661711  3.52E-03
   343 Broy./Diag. 0.20E+00    1.6     0.00147079      -814.1413562456 -9.01E-05
   344 Broy./Diag. 0.20E+00    1.7     0.00091184      -814.1394874321  1.87E-03
   345 Broy./Diag. 0.20E+00    1.6     0.00101402      -814.1427468749 -3.26E-03
   346 Broy./Diag. 0.20E+00    1.6     0.00088018      -814.1463334354 -3.59E-03
   347 Broy./Diag. 0.20E+00    1.6     0.00203259      -814.1521388772 -5.81E-03
   348 Broy./Diag. 0.20E+00    1.6     0.00300013      -814.1630583707 -1.09E-02
   349 Broy./Diag. 0.20E+00    1.6     0.00032670      -814.1686200700 -5.56E-03
   350 Broy./Diag. 0.20E+00    1.6     0.00043510      -814.1698805674 -1.26E-03
   351 Broy./Diag. 0.20E+00    1.6     0.00012776      -814.1702973510 -4.17E-04
   352 Broy./Diag. 0.20E+00    1.6     0.00016059      -814.1704110267 -1.14E-04
   353 Broy./Diag. 0.20E+00    1.6     0.00009763      -814.1715946726 -1.18E-03
   354 Broy./Diag. 0.20E+00    1.6     0.00024508      -814.1723244471 -7.30E-04
   355 Broy./Diag. 0.20E+00    1.6     0.00022592      -814.1724232247 -9.88E-05
   356 Broy./Diag. 0.20E+00    1.6     0.00065159      -814.1723225407  1.01E-04
   357 Broy./Diag. 0.20E+00    1.6     0.00222450      -814.1719082485  4.14E-04
   358 Broy./Diag. 0.20E+00    1.6     0.00113451      -814.1737840954 -1.88E-03
   359 Broy./Diag. 0.20E+00    1.6     0.00086665      -814.1743009298 -5.17E-04
   360 Broy./Diag. 0.20E+00    1.6     0.00109300      -814.1753586466 -1.06E-03
   361 Broy./Diag. 0.20E+00    1.6     0.00057661      -814.1752599624  9.87E-05
   362 Broy./Diag. 0.20E+00    1.6     0.00032864      -814.1749919819  2.68E-04
   363 Broy./Diag. 0.20E+00    1.6     0.00013905      -814.1750591187 -6.71E-05
   364 Broy./Diag. 0.20E+00    1.6     0.00054768      -814.1747719925  2.87E-04
   365 Broy./Diag. 0.20E+00    1.6     0.00026746      -814.1751978988 -4.26E-04
   366 Broy./Diag. 0.20E+00    1.6     0.00018128      -814.1751212504  7.66E-05
   367 Broy./Diag. 0.20E+00    1.7     0.00027550      -814.1754861500 -3.65E-04
   368 Broy./Diag. 0.20E+00    1.6     0.00013041      -814.1756088057 -1.23E-04
   369 Broy./Diag. 0.20E+00    1.6     0.00066242      -814.1754140996  1.95E-04
   370 Broy./Diag. 0.20E+00    1.6     0.00046171      -814.1744833821  9.31E-04
   371 Broy./Diag. 0.20E+00    1.6     0.00005703      -814.1746448251 -1.61E-04
   372 Broy./Diag. 0.20E+00    1.6     0.00010905      -814.1745450248  9.98E-05
   373 Broy./Diag. 0.20E+00    1.6     0.00010131      -814.1741635978  3.81E-04
   374 Broy./Diag. 0.20E+00    1.6     0.00018000      -814.1734693663  6.94E-04
   375 Broy./Diag. 0.20E+00    1.7     0.00007766      -814.1732741579  1.95E-04
   376 Broy./Diag. 0.20E+00    1.6     0.00014459      -814.1729218598  3.52E-04
   377 Broy./Diag. 0.20E+00    1.6     0.00007532      -814.1728508873  7.10E-05
   378 Broy./Diag. 0.20E+00    1.6     0.00002606      -814.1726642243  1.87E-04
   379 Broy./Diag. 0.20E+00    1.6     0.00006853      -814.1725441107  1.20E-04
   380 Broy./Diag. 0.20E+00    1.6     0.00006052      -814.1725168284  2.73E-05
   381 Broy./Diag. 0.20E+00    1.7     0.00013719      -814.1725402007 -2.34E-05
   382 Broy./Diag. 0.20E+00    1.6     0.00014742      -814.1725418729 -1.67E-06
   383 Broy./Diag. 0.20E+00    1.6     0.00021826      -814.1724729021  6.90E-05
   384 Broy./Diag. 0.20E+00    1.7     0.00010016      -814.1725879511 -1.15E-04
   385 Broy./Diag. 0.20E+00    1.6     0.00004514      -814.1725104399  7.75E-05
   386 Broy./Diag. 0.20E+00    1.7     0.00009066      -814.1724626073  4.78E-05
   387 Broy./Diag. 0.20E+00    1.7     0.00027525      -814.1726402335 -1.78E-04
   388 Broy./Diag. 0.20E+00    1.8     0.00015112      -814.1723860578  2.54E-04
   389 Broy./Diag. 0.20E+00    1.8     0.00021160      -814.1722061345  1.80E-04
   390 Broy./Diag. 0.20E+00    1.8     0.00005737      -814.1722766451 -7.05E-05
   391 Broy./Diag. 0.20E+00    1.8     0.00006134      -814.1722485614  2.81E-05
   392 Broy./Diag. 0.20E+00    1.8     0.00006212      -814.1721247252  1.24E-04
   393 Broy./Diag. 0.20E+00    1.8     0.00007653      -814.1721573840 -3.27E-05
   394 Broy./Diag. 0.20E+00    1.8     0.00001319      -814.1721150747  4.23E-05
   395 Broy./Diag. 0.20E+00    1.8     0.00002626      -814.1720971111  1.80E-05
   396 Broy./Diag. 0.20E+00    1.8     0.00002256      -814.1721005070 -3.40E-06
   397 Broy./Diag. 0.20E+00    1.7     0.00002977      -814.1721151726 -1.47E-05
   398 Broy./Diag. 0.20E+00    1.7     0.00002354      -814.1721791865 -6.40E-05
   399 Broy./Diag. 0.20E+00    1.7     0.00001530      -814.1722677988 -8.86E-05
   400 Broy./Diag. 0.20E+00    1.7     0.00002235      -814.1723627531 -9.50E-05
   401 Broy./Diag. 0.20E+00    1.7     0.00003010      -814.1724660931 -1.03E-04
   402 Broy./Diag. 0.20E+00    1.7     0.00000512      -814.1724752727 -9.18E-06
   403 Broy./Diag. 0.20E+00    1.7     0.00002225      -814.1724746909  5.82E-07
   404 Broy./Diag. 0.20E+00    1.7     0.00002492      -814.1724667580  7.93E-06
   405 Broy./Diag. 0.20E+00    1.7     0.00001046      -814.1724645673  2.19E-06
   406 Broy./Diag. 0.20E+00    1.7     0.00001147      -814.1724526083  1.20E-05
   407 Broy./Diag. 0.20E+00    1.7     0.00000806      -814.1724611233 -8.51E-06
   408 Broy./Diag. 0.20E+00    1.8     0.00001094      -814.1724669236 -5.80E-06
   409 Broy./Diag. 0.20E+00    1.7     0.00003019      -814.1724703292 -3.41E-06
   410 Broy./Diag. 0.20E+00    1.7     0.00000640      -814.1724931258 -2.28E-05
   411 Broy./Diag. 0.20E+00    1.7     0.00000190      -814.1724991889 -6.06E-06

  *** SCF run converged in   411 steps ***


  Electronic density on regular grids:       -571.9999833244        0.0000166756
  Core density on regular grids:              571.9999999551       -0.0000000449
  Total charge density on r-space grids:        0.0000166307
  Total charge density g-space grids:           0.0000166307

  Overlap energy of the core charge distribution:               0.00002630182869
  Self energy of the core charge distribution:              -1906.90613352742525
  Core Hamiltonian energy:                                    598.81588966475670
  Hartree energy:                                             744.23013966252597
  Exchange-correlation energy:                               -250.30876098078102
  Electronic entropic energy:                                  -0.00366031282831
  Fermi energy:                                                -0.11251684644743

  Total energy:                                              -814.17249918886318

  outer SCF iter =    1 RMS gradient =   0.19E-05 energy =       -814.1724991889
  outer SCF loop converged in   1 iterations or  411 steps


  Integrated spin density:                                          1.8713437697
  Integrated absolute spin density:                                 6.6597867195
  WARNING: S**2 computation does not yet treat fractional occupied orbitals

 -------------------------------------------------------------------------------
 -                                                                             -
 -  BSSE CALCULATION         FRAGMENT CONF: 01        FRAGMENT SUBCONF: 01     -
 -                           CHARGE =     0           MULTIPLICITY =     0     -
 -                                                                             -
 -                 ATOM INDEX                              ATOM NAME           -
 -                 ----------                              ---------           -
 -                    144                                   I                  -
 -                    145                                   I                  -
 -------------------------------------------------------------------------------

 *******************************************************************************
 *******************************************************************************
 **                                                                           **
 **     #####                         ##              ##                      **
 **    ##   ##            ##          ##              ##                      **
 **   ##     ##                       ##            ######                    **
 **   ##     ##  ##   ##  ##   #####  ##  ##   ####   ##    #####    #####    **
 **   ##     ##  ##   ##  ##  ##      ## ##   ##      ##   ##   ##  ##   ##   **
 **   ##  ## ##  ##   ##  ##  ##      ####     ###    ##   ######   ######    **
 **    ##  ###   ##   ##  ##  ##      ## ##      ##   ##   ##       ##        **
 **     #######   #####   ##   #####  ##  ##  ####    ##    #####   ##        **
 **           ##                                                    ##        **
 **                                                                           **
 **                                                ... make the atoms dance   **
 **                                                                           **
 **            Copyright (C) by CP2K developers group (2000-2026)             **
 **                      J. Chem. Phys. 152, 194103 (2020)                    **
 **                                                                           **
 *******************************************************************************

 *** WARNING in qs_environment.F:1662 :: More ADDED_MOs requested for beta ***
 *** spin than available.                                                  ***


 *** WARNING in qs_environment.F:1679 :: More added MOs requested than     ***
 *** available. The full set of unoccupied MOs will be used. Use           ***
 *** 'ADDED_MOS -1' to always use all available MOs and to get rid of this ***
 *** warning.                                                              ***



 TOTAL NUMBERS AND MAXIMUM NUMBERS

  Total number of            - Atomic kinds:                                   1
                             - Atoms:                                          2
                             - Shell sets:                                     2
                             - Shells:                                        10
                             - Primitive Cartesian functions:                 10
                             - Cartesian basis functions:                     28
                             - Spherical basis functions:                     26

  Maximum angular momentum of- Orbital basis functions:                        2
                             - Local part of the GTH pseudopotential:          0
                             - Non-local part of the GTH pseudopotential:      4


 SCF PARAMETERS         Density guess:                                    ATOMIC
                        --------------------------------------------------------
                        max_scf:                                             500
                        max_scf_history:                                       0
                        max_diis:                                              4
                        --------------------------------------------------------
                        eps_scf:                                        5.00E-06
                        eps_scf_history:                                0.00E+00
                        eps_diis:                                       1.00E-01
                        eps_eigval:                                     1.00E-05
                        --------------------------------------------------------
                        level_shift [a.u.]:                             0.000000
                        added MOs                                        19   19
                        --------------------------------------------------------
                        Mixing method:                            BROYDEN_MIXING
                                                charge density mixing in g-space
                        --------------------------------------------------------
                        Smear method:                                FERMI_DIRAC
                        Electronic temperature [K]:                        500.0
                        Electronic temperature [a.u.]:                  1.58E-03
                        Accuracy threshold:                             1.00E-10
                        --------------------------------------------------------
                        Outer loop SCF in use 
                        No variables optimised in outer loop
                        eps_scf                                         1.00E-05
                        max_scf                                               20
                        No outer loop optimization
                        step_size                                       5.00E-01

 Extrapolation method: initial_guess

 Spin 1

 Number of electrons:                                                          7
 Number of occupied orbitals:                                                  7
 Number of molecular orbitals:                                                26

 Spin 2

 Number of electrons:                                                          7
 Number of occupied orbitals:                                                  7
 Number of molecular orbitals:                                                26

 Number of orbital functions:                                                 26
 Number of independent orbital functions:                                     26


 SCF WAVEFUNCTION OPTIMIZATION

  Step     Update method      Time    Convergence         Total energy    Change
  ------------------------------------------------------------------------------
     1 NoMix/Diag. 0.20E+00    0.3     0.40495327       -22.9374972583 -2.29E+01
     2 Broy./Diag. 0.20E+00    0.5     0.00329307       -23.0106156986 -7.31E-02
     3 Broy./Diag. 0.20E+00    0.5     0.01293655       -22.9445172306  6.61E-02
     4 Broy./Diag. 0.20E+00    0.5     0.00076542       -22.9161504879  2.84E-02
     5 Broy./Diag. 0.20E+00    0.5     0.00178094       -22.9159620740  1.88E-04
     6 Broy./Diag. 0.20E+00    0.5     0.00026151       -22.9177223610 -1.76E-03
     7 Broy./Diag. 0.20E+00    0.5     0.00012760       -22.9165605149  1.16E-03
     8 Broy./Diag. 0.20E+00    0.5     0.00013139       -22.9156731056  8.87E-04
     9 Broy./Diag. 0.20E+00    0.6     0.00008509       -22.9155390255  1.34E-04
    10 Broy./Diag. 0.20E+00    0.6     0.00008345       -22.9158184931 -2.79E-04
    11 Broy./Diag. 0.20E+00    0.6     0.00004800       -22.9166027892 -7.84E-04
    12 Broy./Diag. 0.20E+00    0.6     0.00003058       -22.9163329152  2.70E-04
    13 Broy./Diag. 0.20E+00    0.6     0.00002034       -22.9158966671  4.36E-04
    14 Broy./Diag. 0.20E+00    0.6     0.00001519       -22.9160266986 -1.30E-04
    15 Broy./Diag. 0.20E+00    0.6     0.00000401       -22.9162140430 -1.87E-04

  *** SCF run converged in    15 steps ***


  Electronic density on regular grids:        -14.0000000000        0.0000000000
  Core density on regular grids:               13.9999999969       -0.0000000031
  Total charge density on r-space grids:       -0.0000000031
  Total charge density g-space grids:          -0.0000000031

  Overlap energy of the core charge distribution:               0.00000000037621
  Self energy of the core charge distribution:                -49.36658856042867
  Core Hamiltonian energy:                                      9.81916965485247
  Hartree energy:                                              21.09231987771685
  Exchange-correlation energy:                                 -4.46111500536004
  Electronic entropic energy:                                  -0.00000001015941
  Fermi energy:                                                -0.20128542726270

  Total energy:                                               -22.91621404301129

  outer SCF iter =    1 RMS gradient =   0.40E-05 energy =        -22.9162140430
  outer SCF loop converged in   1 iterations or   15 steps


  Integrated spin density:                                          0.0000000000
  Integrated absolute spin density:                                 0.0000000000
  WARNING: S**2 computation does not yet treat fractional occupied orbitals

 -------------------------------------------------------------------------------
 -                                                                             -
 -  BSSE CALCULATION         FRAGMENT CONF: 11        FRAGMENT SUBCONF: 10     -
 -                           CHARGE =     0           MULTIPLICITY =     3     -
 -                                                                             -
 -                 ATOM INDEX                              ATOM NAME           -
 -                 ----------                              ---------           -
 -                      1                                   C                  -
 -                      2                                   C                  -
 -                      3                                   C                  -
 -                      4                                   C                  -
 -                      5                                   C                  -
 -                      6                                   C                  -
 -                      7                                   C                  -
 -                      8                                   C                  -
 -                      9                                   C                  -
 -                     10                                   C                  -
 -                     11                                   C                  -
 -                     12                                   C                  -
 -                     13                                   C                  -
 -                     14                                   C                  -
 -                     15                                   C                  -
 -                     16                                   C                  -
 -                     17                                   C                  -
 -                     18                                   C                  -
 -                     19                                   C                  -
 -                     20                                   C                  -
 -                     21                                   C                  -
 -                     22                                   C                  -
 -                     23                                   C                  -
 -                     24                                   C                  -
 -                     25                                   C                  -
 -                     26                                   C                  -
 -                     27                                   C                  -
 -                     28                                   C                  -
 -                     29                                   C                  -
 -                     30                                   C                  -
 -                     31                                   C                  -
 -                     32                                   C                  -
 -                     33                                   C                  -
 -                     34                                   C                  -
 -                     35                                   C                  -
 -                     36                                   C                  -
 -                     37                                   C                  -
 -                     38                                   C                  -
 -                     39                                   C                  -
 -                     40                                   C                  -
 -                     41                                   C                  -
 -                     42                                   C                  -
 -                     43                                   C                  -
 -                     44                                   C                  -
 -                     45                                   C                  -
 -                     46                                   C                  -
 -                     47                                   C                  -
 -                     48                                   C                  -
 -                     49                                   C                  -
 -                     50                                   C                  -
 -                     51                                   C                  -
 -                     52                                   C                  -
 -                     53                                   C                  -
 -                     54                                   C                  -
 -                     55                                   C                  -
 -                     56                                   C                  -
 -                     57                                   C                  -
 -                     58                                   C                  -
 -                     59                                   C                  -
 -                     60                                   C                  -
 -                     61                                   C                  -
 -                     62                                   C                  -
 -                     63                                   C                  -
 -                     64                                   C                  -
 -                     65                                   C                  -
 -                     66                                   C                  -
 -                     67                                   C                  -
 -                     68                                   C                  -
 -                     69                                   C                  -
 -                     70                                   C                  -
 -                     71                                   C                  -
 -                     72                                   C                  -
 -                     73                                   C                  -
 -                     74                                   C                  -
 -                     75                                   C                  -
 -                     76                                   C                  -
 -                     77                                   C                  -
 -                     78                                   C                  -
 -                     79                                   C                  -
 -                     80                                   C                  -
 -                     81                                   C                  -
 -                     82                                   C                  -
 -                     83                                   C                  -
 -                     84                                   C                  -
 -                     85                                   C                  -
 -                     86                                   C                  -
 -                     87                                   C                  -
[...]
   375 Broy./Diag. 0.20E+00    1.8     0.00007310      -837.0880812432  1.14E-04
   376 Broy./Diag. 0.20E+00    1.7     0.00015183      -837.0880411360  4.01E-05
   377 Broy./Diag. 0.20E+00    1.7     0.00011530      -837.0880685457 -2.74E-05
   378 Broy./Diag. 0.20E+00    1.7     0.00011523      -837.0880252646  4.33E-05
   379 Broy./Diag. 0.20E+00    1.8     0.00025261      -837.0879799704  4.53E-05
   380 Broy./Diag. 0.20E+00    1.7     0.00009353      -837.0880224104 -4.24E-05
   381 Broy./Diag. 0.20E+00    1.7     0.00021667      -837.0880977371 -7.53E-05
   382 Broy./Diag. 0.20E+00    1.7     0.00023827      -837.0881428227 -4.51E-05
   383 Broy./Diag. 0.20E+00    1.7     0.00011228      -837.0879784770  1.64E-04
   384 Broy./Diag. 0.20E+00    1.7     0.00033576      -837.0880517357 -7.33E-05
   385 Broy./Diag. 0.20E+00    1.7     0.00007530      -837.0881025974 -5.09E-05
   386 Broy./Diag. 0.20E+00    1.7     0.00007490      -837.0880783428  2.43E-05
   387 Broy./Diag. 0.20E+00    1.7     0.00006753      -837.0880342841  4.41E-05
   388 Broy./Diag. 0.20E+00    1.7     0.00009984      -837.0880186143  1.57E-05
   389 Broy./Diag. 0.20E+00    1.7     0.00002559      -837.0879341947  8.44E-05
   390 Broy./Diag. 0.20E+00    1.7     0.00005067      -837.0879404602 -6.27E-06
   391 Broy./Diag. 0.20E+00    1.7     0.00006486      -837.0879271973  1.33E-05
   392 Broy./Diag. 0.20E+00    1.7     0.00008301      -837.0878863414  4.09E-05
   393 Broy./Diag. 0.20E+00    1.6     0.00008275      -837.0879612181 -7.49E-05
   394 Broy./Diag. 0.20E+00    1.7     0.00002775      -837.0879215119  3.97E-05
   395 Broy./Diag. 0.20E+00    1.7     0.00002857      -837.0879029430  1.86E-05
   396 Broy./Diag. 0.20E+00    1.6     0.00002580      -837.0878817949  2.11E-05
   397 Broy./Diag. 0.20E+00    1.6     0.00007931      -837.0879310350 -4.92E-05
   398 Broy./Diag. 0.20E+00    1.6     0.00010028      -837.0878990320  3.20E-05
   399 Broy./Diag. 0.20E+00    1.6     0.00006570      -837.0878769507  2.21E-05
   400 Broy./Diag. 0.20E+00    1.7     0.00002067      -837.0878960439 -1.91E-05
   401 Broy./Diag. 0.20E+00    1.6     0.00018545      -837.0879090905 -1.30E-05
   402 Broy./Diag. 0.20E+00    1.6     0.00010422      -837.0880893695 -1.80E-04
   403 Broy./Diag. 0.20E+00    1.7     0.00009047      -837.0880712669  1.81E-05
   404 Broy./Diag. 0.20E+00    1.7     0.00003462      -837.0880784073 -7.14E-06
   405 Broy./Diag. 0.20E+00    1.6     0.00001173      -837.0881166133 -3.82E-05
   406 Broy./Diag. 0.20E+00    1.6     0.00003305      -837.0881307366 -1.41E-05
   407 Broy./Diag. 0.20E+00    1.6     0.00002562      -837.0881117804  1.90E-05
   408 Broy./Diag. 0.20E+00    1.7     0.00009329      -837.0881325680 -2.08E-05
   409 Broy./Diag. 0.20E+00    1.6     0.00006931      -837.0881162719  1.63E-05
   410 Broy./Diag. 0.20E+00    1.7     0.00007728      -837.0881161549  1.17E-07
   411 Broy./Diag. 0.20E+00    1.6     0.00000140      -837.0881210457 -4.89E-06

  *** SCF run converged in   411 steps ***


  Electronic density on regular grids:       -585.9999833505        0.0000166495
  Core density on regular grids:              585.9999999520       -0.0000000480
  Total charge density on r-space grids:        0.0000166015
  Total charge density g-space grids:           0.0000166015

  Overlap energy of the core charge distribution:               0.00002630220490
  Self energy of the core charge distribution:              -1956.27272208785394
  Core Hamiltonian energy:                                    608.64389659305925
  Hartree energy:                                             765.31746840655819
  Exchange-correlation energy:                               -254.77252766744618
  Electronic entropic energy:                                  -0.00426260057766
  Fermi energy:                                                -0.11207248183231

  Total energy:                                              -837.08812104573690

  outer SCF iter =    1 RMS gradient =   0.14E-05 energy =       -837.0881210457
  outer SCF loop converged in   1 iterations or  411 steps


  Integrated spin density:                                          1.8889540412
  Integrated absolute spin density:                                 6.6850388407
  WARNING: S**2 computation does not yet treat fractional occupied orbitals

 -------------------------------------------------------------------------------
 -                                                                             -
 -                                 BSSE RESULTS                                -
 -                                                                             -
 -                 CP-corrected Total energy:     -837.087432                  -
 -                                                                             -
 -                       1-body contribution:     -814.172499                  -
 -                       1-body contribution:      -22.916214                  -
 -                                                                             -
 -                       2-body contribution:        0.001281                  -
 -                 BSSE-free interaction energy:        0.001281               -
 -------------------------------------------------------------------------------

 -------------------------------------------------------------------------------
 -                                                                             -
 -                                DBCSR STATISTICS                             -
 -                                                                             -
 -------------------------------------------------------------------------------
 COUNTER                                    TOTAL       BLAS       SMM       ACC
 flops    13 x    13 x    26               790920     100.0%      0.0%      0.0%     
 flops    13 x    13 x    23           1910305020     100.0%      0.0%      0.0%     
 flops    13 x    13 x    32           5315631360     100.0%      0.0%      0.0%     
 flops    13 x    13 x    84          95581696392     100.0%      0.0%      0.0%     
 flops    13 x    13 x    86          97857451068     100.0%      0.0%      0.0%     
 flops    13 x    13 x    77         160109739790     100.0%      0.0%      0.0%     
 flops    13 x    13 x    79         164268434330     100.0%      0.0%      0.0%     
 flops    13 x    13 x    96        1853121374208     100.0%      0.0%      0.0%     
 flops inhomo. stacks                           0       0.0%      0.0%      0.0%
 flops total                         2.378165E+12     100.0%      0.0%      0.0%
 flops max/rank                    159.355766E+09     100.0%      0.0%      0.0%
 matmuls inhomo. stacks                         0       0.0%      0.0%      0.0%
 matmuls total                           76884608     100.0%      0.0%      0.0%
 number of processed stacks                303514     100.0%      0.0%      0.0%
 average stack size                                   253.3       0.0       0.0
 marketing flops                    22.405797E-15
 -------------------------------------------------------------------------------
 # multiplications                           2408
 max memory usage/rank               3.761975E+09
 # max total images/rank                        1
 # max 3D layers                                1
 # MPI messages exchanged                  231168
 MPI messages size (bytes):
  total size                        -1.512051E+30
  min size                           0.000000E+00
  max size                         369.408000E+03
  average size                      -6.540918E+24
 MPI breakdown and total messages size (bytes):
             size <=      128                3240                        0
       128 < size <=     8192                 360                   973440
      8192 < size <=    32768                   0                        0
     32768 < size <=   131072                2160                236152800
    131072 < size <=  4194304              225408              77900775264
   4194304 < size <= 16777216                   0                        0
  16777216 < size                               0                        0
 -------------------------------------------------------------------------------
 -                                                                             -
 -                      DBCSR MESSAGE PASSING PERFORMANCE                      -
 -                                                                             -
 -------------------------------------------------------------------------------
 ROUTINE             CALLS      AVE VOLUME [Bytes]
 MP_Bcast                9                     12.
 MP_Allreduce        12075                      8.
 MP_Alltoall         67484                 365249.
 MP_ISend            38528                 133788.
 MP_IRecv            38528                 126458.
 -------------------------------------------------------------------------------

 -------------------------------------------------------------------------------
 -                                                                             -
 -                                GRID STATISTICS                              -
 -                                                                             -
 -------------------------------------------------------------------------------
 LP    KERNEL             BACKEND                              COUNT     PERCENT
 4     collocate ortho    CPU                              174298638      50.08%
 4     integrate ortho    CPU                              173712558      49.91%
 0     collocate general  CPU                                   6960       0.00%
 -------------------------------------------------------------------------------

 -------------------------------------------------------------------------------
 -                                                                             -
 -                          OFFLOAD MEMPOOL STATISTICS                         -
 -                                                                             -
 -------------------------------------------------------------------------------
 Memory consumption                Number of allocations  Used [MiB]  Size [MiB]
 Device                                               14          26          26
 Host                                                 14          26          26
 -------------------------------------------------------------------------------

 MEMORY| Estimated peak process memory [MiB]                                2081

 -------------------------------------------------------------------------------
 -                                                                             -
 -                         MESSAGE PASSING PERFORMANCE                         -
 -                                                                             -
 -------------------------------------------------------------------------------

 ROUTINE             CALLS      AVE VOLUME [Bytes]
 MP_Group               24
 MP_Bcast             3760                  21503.
 MP_Allreduce        35182                    156.
 MP_Sync              2432
 MP_Alltoall         47081               10957829.
 MP_SendRecv         72540                  57600.
 MP_ISendRecv        72240                  57600.
 MP_Wait            294351
 MP_comm_split        2408
 MP_ISend           193140                 236969.
 MP_IRecv           193140                 236980.
 -------------------------------------------------------------------------------


 -------------------------------------------------------------------------------
 -                                                                             -
 -                           R E F E R E N C E S                               -
 -                                                                             -
 -------------------------------------------------------------------------------
 
 CP2K version 2026.1, the CP2K developers group (2026).
 CP2K is freely available from https://www.cp2k.org/ .
 
 T. D. Kuehne, M. Iannuzzi, M. Del Ben, V. V. Rybkin, P. Seewald, F. Stein, T. 
 Laino, R. Z. Khaliullin, O. Schuett, F. Schiffmann, D. Golze, J. Wilhelm, S. 
 Chulkov, M. H. Bani-Hashemian, V. Weber, U. Borstnik, M. Taillefumier, A. S. 
 Jakobovits, A. Lazzaro, H. Pabst, T. Mueller, R. Schade, M. Guidon, S. 
 Andermatt, N. Holmberg, G. K. Schenter, A. Hehn, A. Bussy, F. Belleflamme, G. 
 Tabacchi, A. Gloess, M. Lass, I. Bethune, C. J. Mundy, C. Plessl, M. Watkins, 
 J. VandeVondele, M. Krack, J. Hutter.
 J. Chem. Phys. 152, 194103 (2020).
 CP2K: An electronic structure and molecular dynamics software package - 
 Quickstep: Efficient and accurate electronic structure calculations.
 https://doi.org/10.1063/5.0007045

 O. Schuett, P. Messmer, J. Hutter, J. VandeVondele.
 Electronic Structure Calculations on Graphics Processing Units, 173-190 (2016).
 GPU-Accelerated Sparse Matrix-Matrix Multiplication for Linear Scaling Density 
 Functional Theory.
 https://doi.org/10.1002/9781118670712.ch8

 A. Heinecke, G. Henry, M. Hutchinson, H. Pabst.
 Proceedings of Intl. Supercomputing Conference, 981-991 (2016).
 LIBXSMM: Accelerating Small Matrix Multiplications by Runtime Code Generation.
 https://doi.org/10.1109/SC.2016.83

 J. Hutter, M. Iannuzzi, F. Schiffmann, J. VandeVondele.
 WIREs Comput Mol Sci. 4, 15-25 (2014).
 CP2K: atomistic simulations of condensed matter systems.
 https://doi.org/10.1002/wcms.1159

 U. Borstnik, J. VandeVondele, V. Weber, J. Hutter.
 Parallel Comput. 40, 47-58 (2014).
 Sparse matrix multiplication: The distributed block-compressed sparse row 
 library.
 https://doi.org/10.1016/j.parco.2014.03.012

 J. VandeVondele, J. Hutter.
 J. Chem. Phys. 127, 114105 (2007).
 Gaussian basis sets for accurate calculations on molecular systems in gas and 
 condensed phases.
 https://doi.org/10.1063/1.2770708

 J. VandeVondele, M. Krack, F. Mohamed, M. Parrinello, T. Chassaing, J. Hutter.
 Comput. Phys. Commun. 167, 103-128 (2005).
 QUICKSTEP: Fast and accurate density functional calculations using a mixed 
 Gaussian and plane waves approach.
 https://doi.org/10.1016/j.cpc.2004.12.014

 M. Krack.
 Theor. Chem. Acc. 114, 145-152 (2005).
 Pseudopotentials for H to Kr optimized for gradient-corrected 
 exchange-correlation functionals.
 https://doi.org/10.1007/s00214-005-0655-y

 M. Frigo, S. G. Johnson.
 Proc. IEEE 93, 216-231 (2005).
 The design and implementation of FFTW3.
 https://doi.org/10.1109/JPROC.2004.840301

 C. Hartwigsen, S. Goedecker, J. Hutter.
 Phys. Rev. B 58, 3641-3662 (1998).
 Relativistic separable dual-space Gaussian pseudopotentials from H to Rn.
 https://doi.org/10.1103/PhysRevB.58.3641

 G. Lippert, J. Hutter, M. Parrinello.
 Mol. Phys. 92, 477-487 (1997).
 A hybrid Gaussian and plane wave density functional scheme.
 https://doi.org/10.1080/002689797170220

 S. Goedecker, M. Teter, J. Hutter.
 Phys. Rev. B 54, 1703-1710 (1996).
 Separable dual-space Gaussian pseudopotentials.
 https://doi.org/10.1103/PhysRevB.54.1703

 J. P. Perdew, K. Burke, M. Ernzerhof.
 Phys. Rev. Lett. 77, 3865-3868 (1996).
 Generalized gradient approximation made simple.
 https://doi.org/10.1103/PhysRevLett.77.3865


 -------------------------------------------------------------------------------
 -                                                                             -
 -                                T I M I N G                                  -
 -                                                                             -
 -------------------------------------------------------------------------------
 SUBROUTINE                       CALLS  ASD         SELF TIME        TOTAL TIME
                                MAXIMUM       AVERAGE  MAXIMUM  AVERAGE  MAXIMUM
 CP2K                                 1  1.0    0.034    0.044 1986.558 1986.565
 qs_energies                          5  2.0    0.000    0.000 1986.034 1986.041
 scf_env_do_scf                       5  3.0    0.002    0.002 1984.756 1984.765
 scf_env_do_scf_inner_loop         1204  4.0    0.035    0.101 1984.754 1984.763
 qs_scf_new_mos                    1204  5.0    0.023    0.028 1165.865 1166.036
 eigensolver                       2408  6.0    0.158    0.205 1134.960 1135.591
 cp_fm_syevd                       2408  7.0    0.021    0.030  952.089  952.481
 cp_fm_redistribute_end            2408  8.0  476.168  945.099  479.948  950.003
 cp_fm_syevd_base                  2408  8.0  467.976  937.137  467.976  937.137
 qs_ks_update_qs_env               1204  5.0    0.008    0.009  454.950  455.261
 rebuild_ks_matrix                 1204  6.0    0.003    0.004  454.052  454.359
 qs_ks_build_kohn_sham_matrix      1204  7.0    0.144    0.162  454.049  454.356
 fft_wrap_pw1pw2                  42185 10.1    0.672    0.784  360.213  375.410
 fft_wrap_pw1pw2_80               27707 11.4   11.943   16.430  341.151  361.011
 fft3d_ps                         42185 12.1  149.092  191.370  284.811  322.793
 qs_vxc_create                     1204  8.0    0.022    0.029  275.873  280.004
 xc_vxc_pw_create                  1204  9.0    3.713    4.773  275.851  279.979
 xc_pw_derive                     14448 11.0    0.124    0.184  199.257  210.906
 mp_alltoall_z22v                 42185 14.1  105.671  196.201  105.671  196.201
 qs_rho_update_rho_low             1209  5.0    0.006    0.007  188.604  188.918
 calculate_rho_elec                2418  6.0    2.100    2.241  188.598  188.911
 cp_fm_cholesky_restore            7224  7.0  175.428  181.543  175.428  181.543
 gspace_mixing                     1199  5.0    2.100    2.240  174.176  174.176
 density_rs2pw                     2418  7.0    0.099    0.115  110.158  151.793
 sum_up_and_integrate              1204  8.0    0.036    0.050  148.095  148.474
 integrate_v_rspace                2408  9.0    0.079    0.105  146.971  147.149
 xc_rho_set_and_dset_create        1204 10.0    3.481    4.640  134.975  138.699
 xc_pw_divergence                  2408 10.0    0.058    0.090  131.920  137.245
 broyden_mixing                    1199  6.0  111.345  131.278  133.018  134.569
 yz_to_x                          19309 12.9   11.327   15.808   63.131  107.348
 x_to_yz                          22876 13.3   17.882   24.473   71.749  102.789
 grid_collocate_task_list          2418  7.0   66.166   89.496   66.166   89.496
 grid_integrate_task_list          2408 10.0   57.354   82.547   57.354   82.547
 transfer_rs2pw                    9677  8.0    0.076    0.092   43.186   81.261
 mp_waitany                      193140 11.5   38.752   79.995   38.752   79.995
 transfer_rs2pw_80                 2423  9.0    4.032    4.821   32.862   70.525
 mp_alltoall_d11v                 33752  9.3   32.991   70.478   32.991   70.478
 rs_gather_matrices                2408 10.0    1.065    1.975   26.689   63.996
 potential_pw2rs                   2408 10.0    0.303    0.415   62.836   63.550
 pw_gather_p                      19309 11.9   32.757   52.857   32.757   52.857
 mp_sum_dm                         2388  7.0   13.319   47.346   13.319   47.346
 -------------------------------------------------------------------------------

 The number of warnings for this run is : 2
 
 -------------------------------------------------------------------------------
  **** **** ******  **  PROGRAM ENDED AT                 2026-06-19 20:47:45.400
 ***** ** ***  *** **   PROGRAM RAN ON             ip-172-31-89-158.ec2.internal
 **    ****   ******    PROGRAM RAN BY                                 <unknown>
 ***** **    ** ** **   PROGRAM PROCESS ID                                 11838
  **** **  *******  **  PROGRAM STOPPED IN /opt/cp2k_sanity/cp2k_adsorption_hete
                                           rogeneity
